# vtk DataFile Version 3.0
vtk output
ASCII
DATASET STRUCTURED_POINTS
DIMENSIONS 100 100 1
SPACING 1 1 1
ORIGIN 0 0 0
POINT_DATA 10000
SCALARS SFBox_profile double
LOOKUP_TABLE default 
9.439919e-003
9.439920e-003
9.439920e-003
9.439921e-003
9.439921e-003
9.439920e-003
9.439920e-003
9.439919e-003
9.439919e-003
9.439920e-003
9.439920e-003
9.439920e-003
9.439920e-003
9.439920e-003
9.439920e-003
9.439920e-003
9.439920e-003
9.439920e-003
9.439920e-003
9.439920e-003
9.439920e-003
9.439920e-003
9.439920e-003
9.439920e-003
9.439920e-003
9.439920e-003
9.439920e-003
9.439920e-003
9.439920e-003
9.439920e-003
9.439920e-003
9.439920e-003
9.439920e-003
9.439921e-003
9.439921e-003
9.439921e-003
9.439921e-003
9.439921e-003
9.439921e-003
9.439921e-003
9.439921e-003
9.439922e-003
9.439922e-003
9.439922e-003
9.439922e-003
9.439922e-003
9.439922e-003
9.439922e-003
9.439922e-003
9.439922e-003
9.439922e-003
9.439922e-003
9.439922e-003
9.439922e-003
9.439922e-003
9.439922e-003
9.439922e-003
9.439922e-003
9.439922e-003
9.439922e-003
9.439922e-003
9.439921e-003
9.439921e-003
9.439921e-003
9.439921e-003
9.439921e-003
9.439921e-003
9.439921e-003
9.439920e-003
9.439920e-003
9.439920e-003
9.439920e-003
9.439920e-003
9.439920e-003
9.439920e-003
9.439920e-003
9.439920e-003
9.439920e-003
9.439920e-003
9.439920e-003
9.439920e-003
9.439920e-003
9.439920e-003
9.439920e-003
9.439920e-003
9.439920e-003
9.439920e-003
9.439920e-003
9.439920e-003
9.439920e-003
9.439920e-003
9.439920e-003
9.439920e-003
9.439920e-003
9.439920e-003
9.439920e-003
9.439920e-003
9.439920e-003
9.439920e-003
9.439920e-003
9.439919e-003
9.439920e-003
9.439920e-003
9.439921e-003
9.439921e-003
9.439920e-003
9.439920e-003
9.439919e-003
9.439919e-003
9.439920e-003
9.439920e-003
9.439920e-003
9.439920e-003
9.439920e-003
9.439920e-003
9.439920e-003
9.439920e-003
9.439920e-003
9.439920e-003
9.439920e-003
9.439920e-003
9.439920e-003
9.439920e-003
9.439920e-003
9.439920e-003
9.439920e-003
9.439920e-003
9.439920e-003
9.439920e-003
9.439920e-003
9.439920e-003
9.439920e-003
9.439920e-003
9.439921e-003
9.439921e-003
9.439921e-003
9.439921e-003
9.439921e-003
9.439921e-003
9.439921e-003
9.439921e-003
9.439922e-003
9.439922e-003
9.439922e-003
9.439922e-003
9.439922e-003
9.439922e-003
9.439922e-003
9.439922e-003
9.439922e-003
9.439922e-003
9.439922e-003
9.439922e-003
9.439922e-003
9.439922e-003
9.439922e-003
9.439922e-003
9.439922e-003
9.439922e-003
9.439922e-003
9.439922e-003
9.439921e-003
9.439921e-003
9.439921e-003
9.439921e-003
9.439921e-003
9.439921e-003
9.439921e-003
9.439920e-003
9.439920e-003
9.439920e-003
9.439920e-003
9.439920e-003
9.439920e-003
9.439920e-003
9.439920e-003
9.439920e-003
9.439920e-003
9.439920e-003
9.439920e-003
9.439920e-003
9.439920e-003
9.439920e-003
9.439920e-003
9.439920e-003
9.439920e-003
9.439920e-003
9.439920e-003
9.439920e-003
9.439920e-003
9.439920e-003
9.439920e-003
9.439920e-003
9.439920e-003
9.439920e-003
9.439920e-003
9.439920e-003
9.439920e-003
9.439920e-003
9.439920e-003
9.439920e-003
9.439920e-003
9.439920e-003
9.439920e-003
9.439920e-003
9.439920e-003
9.439920e-003
9.439920e-003
9.439920e-003
9.439920e-003
9.439920e-003
9.439920e-003
9.439920e-003
9.439920e-003
9.439920e-003
9.439920e-003
9.439920e-003
9.439920e-003
9.439920e-003
9.439920e-003
9.439920e-003
9.439920e-003
9.439920e-003
9.439920e-003
9.439920e-003
9.439920e-003
9.439920e-003
9.439920e-003
9.439920e-003
9.439920e-003
9.439921e-003
9.439921e-003
9.439921e-003
9.439921e-003
9.439921e-003
9.439921e-003
9.439922e-003
9.439922e-003
9.439922e-003
9.439922e-003
9.439923e-003
9.439923e-003
9.439923e-003
9.439923e-003
9.439923e-003
9.439924e-003
9.439924e-003
9.439924e-003
9.439924e-003
9.439924e-003
9.439924e-003
9.439924e-003
9.439924e-003
9.439924e-003
9.439924e-003
9.439924e-003
9.439924e-003
9.439923e-003
9.439923e-003
9.439923e-003
9.439923e-003
9.439923e-003
9.439922e-003
9.439922e-003
9.439922e-003
9.439922e-003
9.439921e-003
9.439921e-003
9.439921e-003
9.439921e-003
9.439921e-003
9.439920e-003
9.439920e-003
9.439920e-003
9.439920e-003
9.439920e-003
9.439920e-003
9.439920e-003
9.439920e-003
9.439920e-003
9.439920e-003
9.439920e-003
9.439920e-003
9.439920e-003
9.439920e-003
9.439920e-003
9.439920e-003
9.439920e-003
9.439920e-003
9.439920e-003
9.439920e-003
9.439920e-003
9.439920e-003
9.439920e-003
9.439920e-003
9.439920e-003
9.439920e-003
9.439920e-003
9.439920e-003
9.439920e-003
9.439921e-003
9.439920e-003
9.439920e-003
9.439919e-003
9.439919e-003
9.439920e-003
9.439920e-003
9.439921e-003
9.439920e-003
9.439920e-003
9.439920e-003
9.439920e-003
9.439920e-003
9.439920e-003
9.439920e-003
9.439920e-003
9.439920e-003
9.439920e-003
9.439920e-003
9.439920e-003
9.439920e-003
9.439920e-003
9.439920e-003
9.439920e-003
9.439920e-003
9.439920e-003
9.439920e-003
9.439920e-003
9.439921e-003
9.439921e-003
9.439921e-003
9.439921e-003
9.439922e-003
9.439922e-003
9.439923e-003
9.439923e-003
9.439923e-003
9.439924e-003
9.439924e-003
9.439925e-003
9.439925e-003
9.439925e-003
9.439926e-003
9.439926e-003
9.439926e-003
9.439927e-003
9.439927e-003
9.439927e-003
9.439927e-003
9.439927e-003
9.439927e-003
9.439927e-003
9.439927e-003
9.439927e-003
9.439927e-003
9.439927e-003
9.439927e-003
9.439926e-003
9.439926e-003
9.439926e-003
9.439925e-003
9.439925e-003
9.439924e-003
9.439924e-003
9.439923e-003
9.439923e-003
9.439923e-003
9.439922e-003
9.439922e-003
9.439921e-003
9.439921e-003
9.439921e-003
9.439921e-003
9.439920e-003
9.439920e-003
9.439920e-003
9.439920e-003
9.439920e-003
9.439920e-003
9.439920e-003
9.439920e-003
9.439920e-003
9.439920e-003
9.439920e-003
9.439920e-003
9.439920e-003
9.439920e-003
9.439920e-003
9.439920e-003
9.439920e-003
9.439920e-003
9.439920e-003
9.439920e-003
9.439920e-003
9.439920e-003
9.439920e-003
9.439920e-003
9.439920e-003
9.439920e-003
9.439920e-003
9.439921e-003
9.439921e-003
9.439920e-003
9.439919e-003
9.439919e-003
9.439920e-003
9.439920e-003
9.439921e-003
9.439920e-003
9.439920e-003
9.439920e-003
9.439920e-003
9.439920e-003
9.439920e-003
9.439920e-003
9.439920e-003
9.439920e-003
9.439920e-003
9.439920e-003
9.439920e-003
9.439920e-003
9.439920e-003
9.439920e-003
9.439920e-003
9.439921e-003
9.439921e-003
9.439921e-003
9.439921e-003
9.439922e-003
9.439922e-003
9.439922e-003
9.439923e-003
9.439923e-003
9.439924e-003
9.439925e-003
9.439925e-003
9.439926e-003
9.439927e-003
9.439928e-003
9.439928e-003
9.439929e-003
9.439930e-003
9.439930e-003
9.439931e-003
9.439931e-003
9.439932e-003
9.439932e-003
9.439933e-003
9.439933e-003
9.439933e-003
9.439933e-003
9.439933e-003
9.439933e-003
9.439933e-003
9.439932e-003
9.439932e-003
9.439932e-003
9.439931e-003
9.439931e-003
9.439930e-003
9.439929e-003
9.439929e-003
9.439928e-003
9.439927e-003
9.439926e-003
9.439926e-003
9.439925e-003
9.439924e-003
9.439923e-003
9.439923e-003
9.439922e-003
9.439922e-003
9.439921e-003
9.439921e-003
9.439921e-003
9.439921e-003
9.439920e-003
9.439920e-003
9.439920e-003
9.439920e-003
9.439920e-003
9.439920e-003
9.439920e-003
9.439920e-003
9.439920e-003
9.439920e-003
9.439920e-003
9.439920e-003
9.439920e-003
9.439920e-003
9.439920e-003
9.439920e-003
9.439920e-003
9.439920e-003
9.439920e-003
9.439920e-003
9.439920e-003
9.439920e-003
9.439920e-003
9.439920e-003
9.439921e-003
9.439920e-003
9.439920e-003
9.439920e-003
9.439920e-003
9.439920e-003
9.439920e-003
9.439920e-003
9.439920e-003
9.439920e-003
9.439920e-003
9.439920e-003
9.439920e-003
9.439920e-003
9.439920e-003
9.439920e-003
9.439920e-003
9.439920e-003
9.439920e-003
9.439920e-003
9.439920e-003
9.439920e-003
9.439921e-003
9.439921e-003
9.439921e-003
9.439922e-003
9.439922e-003
9.439923e-003
9.439923e-003
9.439924e-003
9.439925e-003
9.439926e-003
9.439927e-003
9.439928e-003
9.439929e-003
9.439930e-003
9.439931e-003
9.439932e-003
9.439933e-003
9.439934e-003
9.439935e-003
9.439936e-003
9.439937e-003
9.439938e-003
9.439939e-003
9.439939e-003
9.439940e-003
9.439940e-003
9.439940e-003
9.439940e-003
9.439940e-003
9.439940e-003
9.439940e-003
9.439940e-003
9.439940e-003
9.439939e-003
9.439939e-003
9.439938e-003
9.439937e-003
9.439936e-003
9.439935e-003
9.439934e-003
9.439933e-003
9.439932e-003
9.439931e-003
9.439930e-003
9.439929e-003
9.439928e-003
9.439927e-003
9.439926e-003
9.439924e-003
9.439924e-003
9.439923e-003
9.439922e-003
9.439922e-003
9.439921e-003
9.439921e-003
9.439921e-003
9.439920e-003
9.439920e-003
9.439920e-003
9.439920e-003
9.439920e-003
9.439920e-003
9.439920e-003
9.439920e-003
9.439920e-003
9.439920e-003
9.439920e-003
9.439920e-003
9.439920e-003
9.439920e-003
9.439920e-003
9.439920e-003
9.439920e-003
9.439920e-003
9.439920e-003
9.439920e-003
9.439920e-003
9.439920e-003
9.439919e-003
9.439920e-003
9.439920e-003
9.439921e-003
9.439920e-003
9.439920e-003
9.439920e-003
9.439920e-003
9.439920e-003
9.439920e-003
9.439920e-003
9.439920e-003
9.439920e-003
9.439920e-003
9.439920e-003
9.439920e-003
9.439920e-003
9.439920e-003
9.439920e-003
9.439920e-003
9.439921e-003
9.439921e-003
9.439921e-003
9.439922e-003
9.439923e-003
9.439923e-003
9.439924e-003
9.439925e-003
9.439926e-003
9.439928e-003
9.439929e-003
9.439931e-003
9.439933e-003
9.439934e-003
9.439936e-003
9.439937e-003
9.439939e-003
9.439940e-003
9.439941e-003
9.439942e-003
9.439943e-003
9.439944e-003
9.439945e-003
9.439945e-003
9.439946e-003
9.439946e-003
9.439946e-003
9.439946e-003
9.439946e-003
9.439946e-003
9.439946e-003
9.439946e-003
9.439946e-003
9.439945e-003
9.439945e-003
9.439945e-003
9.439944e-003
9.439944e-003
9.439944e-003
9.439943e-003
9.439942e-003
9.439941e-003
9.439940e-003
9.439939e-003
9.439938e-003
9.439936e-003
9.439935e-003
9.439933e-003
9.439932e-003
9.439930e-003
9.439928e-003
9.439927e-003
9.439926e-003
9.439924e-003
9.439924e-003
9.439923e-003
9.439922e-003
9.439921e-003
9.439921e-003
9.439921e-003
9.439920e-003
9.439920e-003
9.439920e-003
9.439920e-003
9.439920e-003
9.439920e-003
9.439920e-003
9.439920e-003
9.439920e-003
9.439920e-003
9.439920e-003
9.439920e-003
9.439920e-003
9.439920e-003
9.439920e-003
9.439920e-003
9.439920e-003
9.439920e-003
9.439920e-003
9.439920e-003
9.439919e-003
9.439919e-003
9.439920e-003
9.439921e-003
9.439921e-003
9.439920e-003
9.439920e-003
9.439920e-003
9.439920e-003
9.439920e-003
9.439920e-003
9.439920e-003
9.439920e-003
9.439920e-003
9.439920e-003
9.439920e-003
9.439920e-003
9.439920e-003
9.439921e-003
9.439921e-003
9.439921e-003
9.439922e-003
9.439922e-003
9.439923e-003
9.439925e-003
9.439926e-003
9.439928e-003
9.439930e-003
9.439932e-003
9.439934e-003
9.439936e-003
9.439938e-003
9.439940e-003
9.439942e-003
9.439944e-003
9.439945e-003
9.439946e-003
9.439947e-003
9.439947e-003
9.439947e-003
9.439947e-003
9.439946e-003
9.439945e-003
9.439944e-003
9.439943e-003
9.439941e-003
9.439940e-003
9.439939e-003
9.439938e-003
9.439937e-003
9.439936e-003
9.439936e-003
9.439935e-003
9.439935e-003
9.439936e-003
9.439936e-003
9.439937e-003
9.439938e-003
9.439940e-003
9.439941e-003
9.439942e-003
9.439942e-003
9.439943e-003
9.439943e-003
9.439943e-003
9.439942e-003
9.439941e-003
9.439940e-003
9.439938e-003
9.439936e-003
9.439934e-003
9.439932e-003
9.439930e-003
9.439928e-003
9.439926e-003
9.439925e-003
9.439923e-003
9.439922e-003
9.439922e-003
9.439921e-003
9.439921e-003
9.439920e-003
9.439920e-003
9.439920e-003
9.439920e-003
9.439920e-003
9.439920e-003
9.439920e-003
9.439920e-003
9.439920e-003
9.439920e-003
9.439920e-003
9.439920e-003
9.439920e-003
9.439920e-003
9.439920e-003
9.439920e-003
9.439920e-003
9.439920e-003
9.439920e-003
9.439919e-003
9.439920e-003
9.439920e-003
9.439921e-003
9.439920e-003
9.439920e-003
9.439920e-003
9.439920e-003
9.439920e-003
9.439920e-003
9.439920e-003
9.439920e-003
9.439920e-003
9.439920e-003
9.439920e-003
9.439921e-003
9.439921e-003
9.439921e-003
9.439921e-003
9.439922e-003
9.439923e-003
9.439924e-003
9.439925e-003
9.439927e-003
9.439929e-003
9.439931e-003
9.439933e-003
9.439936e-003
9.439939e-003
9.439941e-003
9.439943e-003
9.439945e-003
9.439946e-003
9.439947e-003
9.439946e-003
9.439945e-003
9.439943e-003
9.439939e-003
9.439935e-003
9.439930e-003
9.439924e-003
9.439918e-003
9.439912e-003
9.439905e-003
9.439898e-003
9.439891e-003
9.439885e-003
9.439880e-003
9.439875e-003
9.439871e-003
9.439868e-003
9.439867e-003
9.439867e-003
9.439869e-003
9.439871e-003
9.439875e-003
9.439881e-003
9.439887e-003
9.439894e-003
9.439902e-003
9.439909e-003
9.439917e-003
9.439923e-003
9.439929e-003
9.439934e-003
9.439938e-003
9.439941e-003
9.439942e-003
9.439942e-003
9.439942e-003
9.439940e-003
9.439938e-003
9.439936e-003
9.439933e-003
9.439931e-003
9.439928e-003
9.439926e-003
9.439925e-003
9.439924e-003
9.439923e-003
9.439922e-003
9.439921e-003
9.439921e-003
9.439921e-003
9.439920e-003
9.439920e-003
9.439920e-003
9.439920e-003
9.439920e-003
9.439920e-003
9.439920e-003
9.439920e-003
9.439920e-003
9.439920e-003
9.439920e-003
9.439920e-003
9.439920e-003
9.439920e-003
9.439920e-003
9.439920e-003
9.439920e-003
9.439920e-003
9.439920e-003
9.439920e-003
9.439920e-003
9.439920e-003
9.439920e-003
9.439920e-003
9.439920e-003
9.439920e-003
9.439920e-003
9.439920e-003
9.439920e-003
9.439920e-003
9.439920e-003
9.439921e-003
9.439921e-003
9.439922e-003
9.439923e-003
9.439924e-003
9.439925e-003
9.439927e-003
9.439930e-003
9.439932e-003
9.439935e-003
9.439938e-003
9.439941e-003
9.439944e-003
9.439946e-003
9.439947e-003
9.439946e-003
9.439944e-003
9.439940e-003
9.439934e-003
9.439924e-003
9.439913e-003
9.439898e-003
9.439882e-003
9.439863e-003
9.439842e-003
9.439820e-003
9.439796e-003
9.439773e-003
9.439749e-003
9.439726e-003
9.439705e-003
9.439685e-003
9.439668e-003
9.439653e-003
9.439642e-003
9.439634e-003
9.439631e-003
9.439632e-003
9.439637e-003
9.439647e-003
9.439661e-003
9.439679e-003
9.439701e-003
9.439725e-003
9.439751e-003
9.439778e-003
9.439805e-003
9.439831e-003
9.439856e-003
9.439878e-003
9.439897e-003
9.439912e-003
9.439924e-003
9.439933e-003
9.439939e-003
9.439941e-003
9.439942e-003
9.439941e-003
9.439939e-003
9.439937e-003
9.439934e-003
9.439931e-003
9.439929e-003
9.439927e-003
9.439925e-003
9.439923e-003
9.439922e-003
9.439922e-003
9.439921e-003
9.439921e-003
9.439920e-003
9.439920e-003
9.439920e-003
9.439920e-003
9.439920e-003
9.439920e-003
9.439920e-003
9.439920e-003
9.439920e-003
9.439920e-003
9.439920e-003
9.439920e-003
9.439920e-003
9.439920e-003
9.439920e-003
9.439921e-003
9.439920e-003
9.439920e-003
9.439919e-003
9.439919e-003
9.439920e-003
9.439920e-003
9.439920e-003
9.439920e-003
9.439920e-003
9.439920e-003
9.439920e-003
9.439920e-003
9.439920e-003
9.439921e-003
9.439921e-003
9.439922e-003
9.439923e-003
9.439925e-003
9.439926e-003
9.439929e-003
9.439932e-003
9.439936e-003
9.439939e-003
9.439943e-003
9.439946e-003
9.439948e-003
9.439948e-003
9.439945e-003
9.439938e-003
9.439928e-003
9.439911e-003
9.439889e-003
9.439860e-003
9.439825e-003
9.439782e-003
9.439733e-003
9.439679e-003
9.439619e-003
9.439556e-003
9.439489e-003
9.439422e-003
9.439354e-003
9.439287e-003
9.439224e-003
9.439164e-003
9.439110e-003
9.439063e-003
9.439024e-003
9.438994e-003
9.438975e-003
9.438967e-003
9.438971e-003
9.438987e-003
9.439015e-003
9.439054e-003
9.439105e-003
9.439165e-003
9.439233e-003
9.439307e-003
9.439384e-003
9.439463e-003
9.439541e-003
9.439615e-003
9.439684e-003
9.439745e-003
9.439798e-003
9.439842e-003
9.439877e-003
9.439903e-003
9.439921e-003
9.439933e-003
9.439940e-003
9.439942e-003
9.439942e-003
9.439940e-003
9.439937e-003
9.439934e-003
9.439931e-003
9.439928e-003
9.439926e-003
9.439924e-003
9.439923e-003
9.439922e-003
9.439921e-003
9.439920e-003
9.439920e-003
9.439920e-003
9.439920e-003
9.439920e-003
9.439920e-003
9.439920e-003
9.439920e-003
9.439920e-003
9.439920e-003
9.439920e-003
9.439920e-003
9.439920e-003
9.439920e-003
9.439920e-003
9.439921e-003
9.439920e-003
9.439920e-003
9.439920e-003
9.439920e-003
9.439920e-003
9.439920e-003
9.439920e-003
9.439920e-003
9.439920e-003
9.439920e-003
9.439921e-003
9.439921e-003
9.439921e-003
9.439922e-003
9.439923e-003
9.439924e-003
9.439926e-003
9.439928e-003
9.439931e-003
9.439935e-003
9.439939e-003
9.439943e-003
9.439947e-003
9.439949e-003
9.439948e-003
9.439942e-003
9.439931e-003
9.439911e-003
9.439881e-003
9.439838e-003
9.439781e-003
9.439708e-003
9.439619e-003
9.439514e-003
9.439392e-003
9.439255e-003
9.439106e-003
9.438946e-003
9.438778e-003
9.438605e-003
9.438430e-003
9.438257e-003
9.438089e-003
9.437929e-003
9.437781e-003
9.437647e-003
9.437532e-003
9.437437e-003
9.437365e-003
9.437319e-003
9.437301e-003
9.437312e-003
9.437352e-003
9.437423e-003
9.437522e-003
9.437648e-003
9.437799e-003
9.437970e-003
9.438158e-003
9.438356e-003
9.438560e-003
9.438762e-003
9.438958e-003
9.439143e-003
9.439311e-003
9.439459e-003
9.439586e-003
9.439690e-003
9.439773e-003
9.439836e-003
9.439881e-003
9.439911e-003
9.439929e-003
9.439939e-003
9.439942e-003
9.439942e-003
9.439940e-003
9.439936e-003
9.439933e-003
9.439929e-003
9.439927e-003
9.439925e-003
9.439923e-003
9.439922e-003
9.439921e-003
9.439921e-003
9.439921e-003
9.439920e-003
9.439920e-003
9.439920e-003
9.439920e-003
9.439920e-003
9.439920e-003
9.439920e-003
9.439920e-003
9.439920e-003
9.439920e-003
9.439920e-003
9.439920e-003
9.439920e-003
9.439920e-003
9.439920e-003
9.439920e-003
9.439920e-003
9.439920e-003
9.439920e-003
9.439920e-003
9.439920e-003
9.439920e-003
9.439920e-003
9.439921e-003
9.439922e-003
9.439922e-003
9.439923e-003
9.439925e-003
9.439927e-003
9.439930e-003
9.439934e-003
9.439938e-003
9.439943e-003
9.439947e-003
9.439949e-003
9.439948e-003
9.439941e-003
9.439925e-003
9.439896e-003
9.439850e-003
9.439781e-003
9.439686e-003
9.439559e-003
9.439398e-003
9.439200e-003
9.438963e-003
9.438688e-003
9.438377e-003
9.438034e-003
9.437664e-003
9.437273e-003
9.436866e-003
9.436452e-003
9.436037e-003
9.435630e-003
9.435237e-003
9.434866e-003
9.434524e-003
9.434218e-003
9.433954e-003
9.433739e-003
9.433577e-003
9.433474e-003
9.433435e-003
9.433462e-003
9.433557e-003
9.433720e-003
9.433950e-003
9.434242e-003
9.434592e-003
9.434992e-003
9.435431e-003
9.435899e-003
9.436382e-003
9.436867e-003
9.437342e-003
9.437792e-003
9.438209e-003
9.438582e-003
9.438907e-003
9.439180e-003
9.439403e-003
9.439577e-003
9.439708e-003
9.439802e-003
9.439865e-003
9.439905e-003
9.439928e-003
9.439939e-003
9.439943e-003
9.439942e-003
9.439939e-003
9.439935e-003
9.439931e-003
9.439928e-003
9.439926e-003
9.439924e-003
9.439922e-003
9.439922e-003
9.439921e-003
9.439921e-003
9.439920e-003
9.439920e-003
9.439920e-003
9.439920e-003
9.439920e-003
9.439920e-003
9.439920e-003
9.439920e-003
9.439920e-003
9.439920e-003
9.439920e-003
9.439919e-003
9.439920e-003
9.439920e-003
9.439920e-003
9.439920e-003
9.439920e-003
9.439920e-003
9.439920e-003
9.439920e-003
9.439920e-003
9.439920e-003
9.439921e-003
9.439922e-003
9.439924e-003
9.439926e-003
9.439928e-003
9.439932e-003
9.439937e-003
9.439942e-003
9.439947e-003
9.439950e-003
9.439950e-003
9.439944e-003
9.439926e-003
9.439891e-003
9.439831e-003
9.439738e-003
9.439601e-003
9.439410e-003
9.439155e-003
9.438827e-003
9.438420e-003
9.437930e-003
9.437355e-003
9.436699e-003
9.435967e-003
9.435170e-003
9.434319e-003
9.433428e-003
9.432513e-003
9.431588e-003
9.430670e-003
9.429774e-003
9.428917e-003
9.428112e-003
9.427375e-003
9.426717e-003
9.426154e-003
9.425696e-003
9.425354e-003
9.425139e-003
9.425059e-003
9.425121e-003
9.425327e-003
9.425679e-003
9.426175e-003
9.426807e-003
9.427566e-003
9.428435e-003
9.429396e-003
9.430425e-003
9.431496e-003
9.432580e-003
9.433650e-003
9.434676e-003
9.435635e-003
9.436506e-003
9.437274e-003
9.437930e-003
9.438474e-003
9.438909e-003
9.439245e-003
9.439494e-003
9.439670e-003
9.439789e-003
9.439865e-003
9.439909e-003
9.439932e-003
9.439941e-003
9.439943e-003
9.439941e-003
9.439937e-003
9.439933e-003
9.439929e-003
9.439926e-003
9.439924e-003
9.439923e-003
9.439922e-003
9.439921e-003
9.439920e-003
9.439920e-003
9.439920e-003
9.439920e-003
9.439920e-003
9.439920e-003
9.439920e-003
9.439920e-003
9.439920e-003
9.439920e-003
9.439920e-003
9.439919e-003
9.439920e-003
9.439920e-003
9.439920e-003
9.439920e-003
9.439920e-003
9.439920e-003
9.439920e-003
9.439921e-003
9.439921e-003
9.439921e-003
9.439922e-003
9.439924e-003
9.439926e-003
9.439929e-003
9.439933e-003
9.439939e-003
9.439944e-003
9.439950e-003
9.439952e-003
9.439949e-003
9.439933e-003
9.439899e-003
9.439835e-003
9.439726e-003
9.439557e-003
9.439307e-003
9.438955e-003
9.438480e-003
9.437862e-003
9.437084e-003
9.436134e-003
9.435009e-003
9.433709e-003
9.432246e-003
9.430635e-003
9.428901e-003
9.427070e-003
9.425174e-003
9.423245e-003
9.421316e-003
9.419419e-003
9.417584e-003
9.415842e-003
9.414219e-003
9.412742e-003
9.411435e-003
9.410321e-003
9.409421e-003
9.408755e-003
9.408340e-003
9.408191e-003
9.408321e-003
9.408737e-003
9.409442e-003
9.410432e-003
9.411697e-003
9.413221e-003
9.414976e-003
9.416929e-003
9.419037e-003
9.421250e-003
9.423512e-003
9.425766e-003
9.427954e-003
9.430022e-003
9.431922e-003
9.433620e-003
9.435093e-003
9.436331e-003
9.437338e-003
9.438130e-003
9.438730e-003
9.439168e-003
9.439473e-003
9.439677e-003
9.439805e-003
9.439880e-003
9.439920e-003
9.439938e-003
9.439944e-003
9.439942e-003
9.439939e-003
9.439934e-003
9.439930e-003
9.439927e-003
9.439924e-003
9.439923e-003
9.439921e-003
9.439921e-003
9.439920e-003
9.439920e-003
9.439920e-003
9.439920e-003
9.439920e-003
9.439920e-003
9.439920e-003
9.439920e-003
9.439920e-003
9.439920e-003
9.439920e-003
9.439920e-003
9.439920e-003
9.439920e-003
9.439920e-003
9.439920e-003
9.439920e-003
9.439921e-003
9.439921e-003
9.439922e-003
9.439923e-003
9.439924e-003
9.439927e-003
9.439930e-003
9.439935e-003
9.439940e-003
9.439946e-003
9.439952e-003
9.439952e-003
9.439944e-003
9.439917e-003
9.439859e-003
9.439753e-003
9.439573e-003
9.439290e-003
9.438868e-003
9.438264e-003
9.437437e-003
9.436345e-003
9.434949e-003
9.433222e-003
9.431148e-003
9.428725e-003
9.425970e-003
9.422913e-003
9.419597e-003
9.416077e-003
9.412414e-003
9.408674e-003
9.404920e-003
9.401216e-003
9.397621e-003
9.394189e-003
9.390968e-003
9.388003e-003
9.385335e-003
9.382999e-003
9.381028e-003
9.379454e-003
9.378302e-003
9.377600e-003
9.377367e-003
9.377624e-003
9.378382e-003
9.379651e-003
9.381429e-003
9.383708e-003
9.386467e-003
9.389671e-003
9.393271e-003
9.397202e-003
9.401383e-003
9.405719e-003
9.410102e-003
9.414423e-003
9.418572e-003
9.422446e-003
9.425963e-003
9.429061e-003
9.431707e-003
9.433895e-003
9.435643e-003
9.436992e-003
9.437995e-003
9.438713e-003
9.439205e-003
9.439527e-003
9.439726e-003
9.439842e-003
9.439904e-003
9.439933e-003
9.439943e-003
9.439943e-003
9.439939e-003
9.439935e-003
9.439930e-003
9.439927e-003
9.439924e-003
9.439923e-003
9.439922e-003
9.439921e-003
9.439921e-003
9.439920e-003
9.439920e-003
9.439920e-003
9.439920e-003
9.439920e-003
9.439920e-003
9.439920e-003
9.439920e-003
9.439920e-003
9.439920e-003
9.439920e-003
9.439920e-003
9.439920e-003
9.439920e-003
9.439920e-003
9.439921e-003
9.439922e-003
9.439923e-003
9.439925e-003
9.439927e-003
9.439931e-003
9.439936e-003
9.439942e-003
9.439949e-003
9.439953e-003
9.439952e-003
9.439937e-003
9.439895e-003
9.439808e-003
9.439646e-003
9.439371e-003
9.438931e-003
9.438263e-003
9.437293e-003
9.435940e-003
9.434121e-003
9.431761e-003
9.428799e-003
9.425197e-003
9.420947e-003
9.416074e-003
9.410637e-003
9.404724e-003
9.398443e-003
9.391919e-003
9.385282e-003
9.378659e-003
9.372166e-003
9.365911e-003
9.359982e-003
9.354457e-003
9.349397e-003
9.344851e-003
9.340858e-003
9.337447e-003
9.334640e-003
9.332458e-003
9.330915e-003
9.330026e-003
9.329806e-003
9.330272e-003
9.331441e-003
9.333331e-003
9.335960e-003
9.339339e-003
9.343475e-003
9.348356e-003
9.353952e-003
9.360206e-003
9.367028e-003
9.374295e-003
9.381847e-003
9.389497e-003
9.397041e-003
9.404271e-003
9.410996e-003
9.417057e-003
9.422345e-003
9.426805e-003
9.430436e-003
9.433289e-003
9.435450e-003
9.437025e-003
9.438128e-003
9.438869e-003
9.439344e-003
9.439633e-003
9.439799e-003
9.439886e-003
9.439927e-003
9.439941e-003
9.439943e-003
9.439940e-003
9.439935e-003
9.439931e-003
9.439927e-003
9.439924e-003
9.439923e-003
9.439922e-003
9.439921e-003
9.439920e-003
9.439920e-003
9.439920e-003
9.439920e-003
9.439920e-003
9.439920e-003
9.439920e-003
9.439920e-003
9.439920e-003
9.439920e-003
9.439920e-003
9.439920e-003
9.439920e-003
9.439920e-003
9.439921e-003
9.439921e-003
9.439922e-003
9.439924e-003
9.439927e-003
9.439931e-003
9.439937e-003
9.439944e-003
9.439951e-003
9.439955e-003
9.439951e-003
9.439929e-003
9.439871e-003
9.439750e-003
9.439522e-003
9.439128e-003
9.438488e-003
9.437496e-003
9.436028e-003
9.433940e-003
9.431083e-003
9.427314e-003
9.422519e-003
9.416622e-003
9.409613e-003
9.401549e-003
9.392561e-003
9.382843e-003
9.372636e-003
9.362210e-003
9.351834e-003
9.341763e-003
9.332218e-003
9.323374e-003
9.315361e-003
9.308264e-003
9.302124e-003
9.296948e-003
9.292710e-003
9.289362e-003
9.286834e-003
9.285045e-003
9.283907e-003
9.283335e-003
9.283252e-003
9.283602e-003
9.284351e-003
9.285500e-003
9.287086e-003
9.289183e-003
9.291901e-003
9.295379e-003
9.299766e-003
9.305207e-003
9.311815e-003
9.319648e-003
9.328685e-003
9.338805e-003
9.349783e-003
9.361297e-003
9.372956e-003
9.384338e-003
9.395039e-003
9.404721e-003
9.413146e-003
9.420196e-003
9.425867e-003
9.430253e-003
9.433513e-003
9.435842e-003
9.437438e-003
9.438486e-003
9.439143e-003
9.439535e-003
9.439754e-003
9.439868e-003
9.439921e-003
9.439940e-003
9.439944e-003
9.439941e-003
9.439936e-003
9.439931e-003
9.439927e-003
9.439924e-003
9.439923e-003
9.439921e-003
9.439921e-003
9.439920e-003
9.439920e-003
9.439920e-003
9.439920e-003
9.439920e-003
9.439920e-003
9.439920e-003
9.439920e-003
9.439920e-003
9.439920e-003
9.439920e-003
9.439921e-003
9.439921e-003
9.439921e-003
9.439922e-003
9.439924e-003
9.439927e-003
9.439931e-003
9.439937e-003
9.439944e-003
9.439951e-003
9.439956e-003
9.439951e-003
9.439922e-003
9.439849e-003
9.439692e-003
9.439393e-003
9.438866e-003
9.437989e-003
9.436602e-003
9.434504e-003
9.431460e-003
9.427217e-003
9.421530e-003
9.414198e-003
9.405109e-003
9.394278e-003
9.381878e-003
9.368246e-003
9.353870e-003
9.339343e-003
9.325308e-003
9.312394e-003
9.301151e-003
9.292013e-003
9.285263e-003
9.281033e-003
9.279312e-003
9.279962e-003
9.282742e-003
9.287330e-003
9.293339e-003
9.300329e-003
9.307826e-003
9.315334e-003
9.322356e-003
9.328416e-003
9.333087e-003
9.336019e-003
9.336966e-003
9.335822e-003
9.332640e-003
9.327650e-003
9.321269e-003
9.314085e-003
9.306833e-003
9.300343e-003
9.295467e-003
9.292998e-003
9.293568e-003
9.297558e-003
9.305027e-003
9.315684e-003
9.328908e-003
9.343826e-003
9.359443e-003
9.374774e-003
9.388986e-003
9.401478e-003
9.411928e-003
9.420266e-003
9.426626e-003
9.431269e-003
9.434518e-003
9.436695e-003
9.438091e-003
9.438947e-003
9.439444e-003
9.439716e-003
9.439854e-003
9.439917e-003
9.439940e-003
9.439944e-003
9.439941e-003
9.439935e-003
9.439930e-003
9.439927e-003
9.439924e-003
9.439922e-003
9.439921e-003
9.439921e-003
9.439920e-003
9.439920e-003
9.439920e-003
9.439920e-003
9.439920e-003
9.439920e-003
9.439920e-003
9.439920e-003
9.439920e-003
9.439920e-003
9.439921e-003
9.439922e-003
9.439922e-003
9.439924e-003
9.439927e-003
9.439931e-003
9.439937e-003
9.439944e-003
9.439951e-003
9.439956e-003
9.439950e-003
9.439918e-003
9.439831e-003
9.439642e-003
9.439275e-003
9.438611e-003
9.437481e-003
9.435650e-003
9.432818e-003
9.428621e-003
9.422657e-003
9.414536e-003
9.403949e-003
9.390771e-003
9.375154e-003
9.357618e-003
9.339081e-003
9.320837e-003
9.304448e-003
9.291590e-003
9.283864e-003
9.282620e-003
9.288813e-003
9.302932e-003
9.324977e-003
9.354498e-003
9.390668e-003
9.432368e-003
9.478270e-003
9.526895e-003
9.576660e-003
9.625905e-003
9.672918e-003
9.715972e-003
9.753362e-003
9.783468e-003
9.804819e-003
9.816180e-003
9.816638e-003
9.805692e-003
9.783340e-003
9.750150e-003
9.707306e-003
9.656620e-003
9.600485e-003
9.541774e-003
9.483672e-003
9.429433e-003
9.382087e-003
9.344121e-003
9.317184e-003
9.301866e-003
9.297634e-003
9.302937e-003
9.315478e-003
9.332607e-003
9.351733e-003
9.370671e-003
9.387852e-003
9.402374e-003
9.413928e-003
9.422639e-003
9.428890e-003
9.433173e-003
9.435977e-003
9.437732e-003
9.438780e-003
9.439373e-003
9.439690e-003
9.439846e-003
9.439915e-003
9.439940e-003