# vtk DataFile Version 3.0
vtk output
ASCII
DATASET STRUCTURED_POINTS
DIMENSIONS 100 100 1
SPACING 1 1 1
ORIGIN 0 0 0
POINT_DATA 10000
SCALARS SFBox_profile double
LOOKUP_TABLE default 
0.000000e+000
0.000000e+000
0.000000e+000
0.000000e+000
0.000000e+000
0.000000e+000
0.000000e+000
0.000000e+000
0.000000e+000
0.000000e+000
0.000000e+000
0.000000e+000
0.000000e+000
0.000000e+000
0.000000e+000
0.000000e+000
0.000000e+000
0.000000e+000
0.000000e+000
0.000000e+000
0.000000e+000
0.000000e+000
0.000000e+000
0.000000e+000
0.000000e+000
0.000000e+000
0.000000e+000
0.000000e+000
0.000000e+000
0.000000e+000
0.000000e+000
0.000000e+000
0.000000e+000
0.000000e+000
0.000000e+000
0.000000e+000
0.000000e+000
0.000000e+000
0.000000e+000
0.000000e+000
0.000000e+000
0.000000e+000
0.000000e+000
0.000000e+000
0.000000e+000
0.000000e+000
0.000000e+000
0.000000e+000
0.000000e+000
0.000000e+000
0.000000e+000
0.000000e+000
0.000000e+000
0.000000e+000
0.000000e+000
0.000000e+000
0.000000e+000
0.000000e+000
0.000000e+000
0.000000e+000
0.000000e+000
0.000000e+000
0.000000e+000
0.000000e+000
0.000000e+000
0.000000e+000
0.000000e+000
0.000000e+000
0.000000e+000
0.000000e+000
0.000000e+000
0.000000e+000
0.000000e+000
0.000000e+000
0.000000e+000
0.000000e+000
0.000000e+000
0.000000e+000
0.000000e+000
0.000000e+000
0.000000e+000
0.000000e+000
0.000000e+000
0.000000e+000
0.000000e+000
0.000000e+000
0.000000e+000
0.000000e+000
0.000000e+000
0.000000e+000
0.000000e+000
0.000000e+000
0.000000e+000
0.000000e+000
0.000000e+000
0.000000e+000
0.000000e+000
0.000000e+000
0.000000e+000
0.000000e+000
-9.416450e-009
-7.413178e-009
-4.104230e-009
-6.017155e-010
2.013609e-009
3.109250e-009
2.707648e-009
1.395282e-009
-1.228783e-011
-8.749810e-010
-9.938750e-010
-6.091259e-010
-1.574510e-010
4.341314e-011
-1.879871e-011
-9.874962e-011
8.260740e-011
6.127188e-010
1.323078e-009
1.919900e-009
2.199136e-009
2.182069e-009
2.080011e-009
2.130298e-009
2.434681e-009
2.913109e-009
3.387210e-009
3.712660e-009
3.859333e-009
3.895260e-009
3.908747e-009
3.939804e-009
3.968066e-009
3.950924e-009
3.869250e-009
3.742962e-009
3.610771e-009
3.497418e-009
3.396069e-009
3.276392e-009
3.107817e-009
2.879463e-009
2.604780e-009
2.311866e-009
2.028914e-009
1.774119e-009
1.553654e-009
1.365720e-009
1.206390e-009
1.073909e-009
9.703873e-010
9.014238e-010
8.746310e-010
8.976553e-010
9.760687e-010
1.111520e-009
1.300438e-009
1.533604e-009
1.796775e-009
2.072413e-009
2.342067e-009
2.588783e-009
2.798785e-009
2.961939e-009
3.071055e-009
3.120957e-009
3.108044e-009
3.030876e-009
2.891371e-009
2.695697e-009
2.454242e-009
2.180339e-009
1.888300e-009
1.591724e-009
1.302455e-009
1.030409e-009
7.838276e-010
5.693875e-010
3.919157e-010
2.537764e-010
1.543086e-010
8.971797e-011
5.352629e-011
3.757149e-011
3.323714e-011
3.266246e-011
2.990169e-011
2.189797e-011
8.997364e-012
-5.393095e-012
-1.628214e-011
-1.936397e-011
-1.332741e-011
-9.783025e-013
1.172503e-011
1.848320e-011
1.581710e-011
5.025203e-012
-8.351859e-012
-1.737615e-011
-4.152015e-009
-3.233769e-009
-1.714890e-009
-1.108450e-010
1.061967e-009
1.485544e-009
1.159435e-009
3.830902e-010
-3.966536e-010
-8.029058e-010
-7.005109e-010
-2.298875e-010
3.128207e-010
6.724949e-010
7.834404e-010
7.778959e-010
8.600509e-010
1.143696e-009
1.572237e-009
1.973090e-009
2.195403e-009
2.221367e-009
2.169256e-009
2.194772e-009
2.373142e-009
2.650480e-009
2.891068e-009
2.973123e-009
2.857526e-009
2.586961e-009
2.231647e-009
1.833381e-009
1.388713e-009
8.731235e-010
2.761764e-010
-3.834163e-010
-1.070922e-009
-1.760951e-009
-2.452621e-009
-3.164335e-009
-3.915123e-009
-4.707495e-009
-5.522525e-009
-6.327485e-009
-7.088377e-009
-7.779377e-009
-8.385353e-009
-8.898743e-009
-9.314432e-009
-9.625694e-009
-9.822492e-009
-9.891859e-009
-9.819782e-009
-9.593787e-009
-9.205814e-009
-8.654796e-009
-7.948415e-009
-7.103773e-009
-6.146767e-009
-5.110278e-009
-4.031579e-009
-2.949396e-009
-1.901327e-009
-9.219773e-010
-4.185529e-011
7.134585e-010
1.324411e-009
1.779131e-009
2.075142e-009
2.220256e-009
2.231906e-009
2.134765e-009
1.957213e-009
1.727797e-009
1.472445e-009
1.212849e-009
9.658308e-010
7.433360e-010
5.526513e-010
3.967839e-010
2.751723e-010
1.845989e-010
1.202750e-010
7.679345e-011
4.876666e-011
3.116751e-011
1.960583e-011
1.075640e-011
2.855693e-012
-4.049734e-012
-8.580239e-012
-9.088946e-012
-5.072164e-012
1.944908e-012
8.724410e-012
1.181449e-011
9.341011e-012
2.181256e-012
-6.293757e-012
-1.193318e-011
3.412309e-009
2.698794e-009
1.542578e-009
3.500374e-010
-5.294228e-010
-9.452129e-010
-9.639996e-010
-7.702844e-010
-5.254280e-010
-2.795316e-010
1.498010e-011
4.150907e-010
9.029860e-010
1.374619e-009
1.707530e-009
1.849614e-009
1.855216e-009
1.839944e-009
1.892439e-009
2.013985e-009
2.129416e-009
2.151907e-009
2.042933e-009
1.819811e-009
1.512364e-009
1.112548e-009
5.615477e-010
-2.179600e-010
-1.274606e-009
-2.604524e-009
-4.164712e-009
-5.906139e-009
-7.797828e-009
-9.826904e-009
-1.198244e-008
-1.424189e-008
-1.657211e-008
-1.894136e-008
-2.132998e-008
-2.372988e-008
-2.613405e-008
-2.852434e-008
-3.086620e-008
-3.311251e-008
-3.521257e-008
-3.712026e-008
-3.879739e-008
-4.021240e-008
-4.133648e-008
-4.214015e-008
-4.259168e-008
-4.265794e-008
-4.230725e-008
-4.151351e-008
-4.026088e-008
-3.854815e-008
-3.639183e-008
-3.382771e-008
-3.091055e-008
-2.771234e-008
-2.431916e-008
-2.082714e-008
-1.733750e-008
-1.395133e-008
-1.076413e-008
-7.860471e-009
-5.308738e-009
-3.156332e-009
-1.426010e-009
-1.143962e-010
8.064768e-010
1.384521e-009
1.680615e-009
1.760853e-009
1.689484e-009
1.523518e-009
1.309423e-009
1.081757e-009
8.634618e-010
6.673978e-010
4.988799e-010
3.585129e-010
2.447484e-010
1.555574e-010
8.905575e-011
4.321841e-011
1.532240e-011
1.657587e-012
-2.187380e-012
-6.376453e-013
2.654753e-012
5.325162e-012
6.341271e-012
5.682048e-012
3.901106e-012
1.703287e-012
-3.534837e-013
-1.933531e-012
-2.936216e-012
-3.413708e-012
9.051834e-009
6.987878e-009
3.646813e-009
2.413267e-010
-2.129860e-009
-2.932088e-009
-2.341233e-009
-1.038501e-009
2.078861e-010
9.316039e-010
1.122466e-009
1.095077e-009
1.195622e-009
1.555170e-009
2.040530e-009
2.401083e-009
2.474404e-009
2.290190e-009
2.008649e-009
1.761943e-009
1.531368e-009
1.147892e-009
3.976780e-010
-8.612555e-010
-2.656599e-009
-4.946397e-009
-7.695207e-009
-1.091528e-008
-1.464906e-008
-1.892111e-008
-2.370490e-008
-2.892750e-008
-3.450026e-008
-4.034713e-008
-4.641241e-008
-5.265060e-008
-5.901359e-008
-6.544639e-008
-7.189137e-008
-7.829286e-008
-8.459619e-008
-9.074167e-008
-9.665876e-008
-1.022652e-007
-1.074713e-007
-1.121867e-007
-1.163242e-007
-1.198015e-007
-1.225385e-007
-1.244553e-007
-1.254718e-007
-1.255091e-007
-1.244951e-007
-1.223717e-007
-1.191027e-007
-1.146822e-007
-1.091406e-007
-1.025487e-007
-9.501905e-008
-8.670498e-008
-7.779671e-008
-6.851520e-008
-5.910281e-008
-4.981129e-008
-4.088745e-008
-3.255822e-008
-2.501589e-008
-1.840531e-008
-1.281444e-008
-8.269942e-009
-4.739013e-009
-2.137524e-009
-3.433259e-010
7.876811e-010
1.405463e-009
1.652077e-009
1.651569e-009
1.504138e-009
1.284323e-009
1.042614e-009
8.095787e-010
6.012353e-010
4.243729e-010
2.808177e-010
1.701202e-010
9.063786e-011
3.958593e-011
1.267468e-011
3.935484e-012
6.182049e-012
1.208121e-011
1.574647e-011
1.413113e-011
7.596957e-012
-7.812867e-013
-7.030665e-012
-8.461654e-012
-5.091507e-012
4.546984e-013
4.507175e-012
9.662363e-009
7.259984e-009
3.404963e-009
-4.323279e-010
-2.913419e-009
-3.395919e-009
-2.143804e-009
-9.736560e-011
1.659376e-009
2.442555e-009
2.236834e-009
1.567357e-009
1.088896e-009
1.165880e-009
1.698810e-009
2.269780e-009
2.460837e-009
2.099017e-009
1.265962e-009
1.028139e-010
-1.410770e-009
-3.528746e-009
-6.623457e-009
-1.099159e-008
-1.673267e-008
-2.377216e-008
-3.198058e-008
-4.127972e-008
-5.166127e-008
-6.312727e-008
-7.561934e-008
-8.899623e-008
-1.030680e-007
-1.176502e-007
-1.325962e-007
-1.477933e-007
-1.631380e-007
-1.785158e-007
-1.937972e-007
-2.088452e-007
-2.235237e-007
-2.376962e-007
-2.512197e-007
-2.639389e-007
-2.756849e-007
-2.862801e-007
-2.955435e-007
-3.032945e-007
-3.093529e-007
-3.135389e-007
-3.156742e-007
-3.155869e-007
-3.131211e-007
-3.081493e-007
-3.005873e-007
-2.904091e-007
-2.776601e-007
-2.624667e-007
-2.450431e-007
-2.256927e-007
-2.048051e-007
-1.828472e-007
-1.603464e-007
-1.378671e-007
-1.159800e-007
-9.522735e-008
-7.608816e-008
-5.894627e-008
-4.406553e-008
-3.157543e-008
-2.146994e-008
-1.361985e-008
-7.797249e-009
-3.707702e-009
-1.025051e-009
5.764532e-010
1.396353e-009
1.690608e-009
1.662959e-009
1.464002e-009
1.196190e-009
9.224723e-010
6.764070e-010
4.719185e-010
3.115127e-010
1.922240e-010
1.091404e-010
5.677714e-011
2.898875e-011
1.854476e-011
1.731001e-011
1.764041e-011
1.439074e-011
6.446930e-012
-3.383728e-012
-1.043876e-011
-1.121906e-011
-5.665728e-012
2.660189e-012
8.626567e-012
4.923490e-009
3.473576e-009
1.178221e-009
-1.011560e-009
-2.209360e-009
-1.982625e-009
-5.409568e-010
1.377320e-009
2.879369e-009
3.369205e-009
2.832940e-009
1.793095e-009
9.564349e-010
7.699288e-010
1.157874e-009
1.589084e-009
1.395698e-009
9.963218e-011
-2.478349e-009
-6.368048e-009
-1.169994e-008
-1.883892e-008
-2.830020e-008
-4.052746e-008
-5.571040e-008
-7.376529e-008
-9.446096e-008
-1.175689e-007
-1.429251e-007
-1.703847e-007
-1.997380e-007
-2.306710e-007
-2.627998e-007
-2.957431e-007
-3.291762e-007
-3.628360e-007
-3.964890e-007
-4.298974e-007
-4.628046e-007
-4.949427e-007
-5.260444e-007
-5.558457e-007
-5.840780e-007
-6.104570e-007
-6.346764e-007
-6.564096e-007
-6.753164e-007
-6.910485e-007
-7.032534e-007
-7.115764e-007
-7.156650e-007
-7.151786e-007
-7.098046e-007
-6.992796e-007
-6.834147e-007
-6.621217e-007
-6.354396e-007
-6.035569e-007
-5.668300e-007
-5.257944e-007
-4.811677e-007
-4.338413e-007
-3.848568e-007
-3.353660e-007
-2.865741e-007
-2.396694e-007
-1.957479e-007
-1.557389e-007
-1.203411e-007
-8.997935e-008
-6.478694e-008
-4.461845e-008
-2.909050e-008
-1.764375e-008
-9.615457e-009
-4.311179e-009
-1.065999e-009
7.106604e-010
1.508760e-009
1.708473e-009
1.584642e-009
1.320333e-009
1.025270e-009
7.557002e-010
5.331075e-010
3.598533e-010
2.305046e-010
1.382188e-010
7.684605e-011
4.037608e-011
2.187220e-011
1.363727e-011
8.794272e-012
3.359684e-012
-2.890646e-012
-7.490140e-012
-7.811706e-012
-3.464440e-012
3.045178e-012
7.744601e-012
-2.644661e-009
-2.187021e-009
-1.453455e-009
-6.714733e-010
4.213712e-011
7.253821e-010
1.465910e-009
2.241624e-009
2.857491e-009
3.055201e-009
2.721761e-009
2.019235e-009
1.296001e-009
8.040098e-010
4.091038e-010
-4.957535e-010
-2.810832e-009
-7.421488e-009
-1.498899e-008
-2.597152e-008
-4.080925e-008
-6.007753e-008
-8.445511e-008
-1.145211e-007
-1.505365e-007
-1.923668e-007
-2.395802e-007
-2.916213e-007
-3.479298e-007
-4.079478e-007
-4.710615e-007
-5.365648e-007
-6.036940e-007
-6.717085e-007
-7.399588e-007
-8.079012e-007
-8.750632e-007
-9.409972e-007
-1.005254e-006
-1.067381e-006
-1.126935e-006
-1.183480e-006
-1.236581e-006
-1.285782e-006
-1.330595e-006
-1.370500e-006
-1.404948e-006
-1.433367e-006
-1.455173e-006
-1.469769e-006
-1.476554e-006
-1.474939e-006
-1.464367e-006
-1.444342e-006
-1.414472e-006
-1.374504e-006
-1.324375e-006
-1.264252e-006
-1.194581e-006
-1.116118e-006
-1.029963e-006
-9.375699e-007
-8.407303e-007
-7.415302e-007
-6.422637e-007
-5.453121e-007
-4.529952e-007
-3.674102e-007
-2.902757e-007
-2.228058e-007
-1.656323e-007
-1.187899e-007
-8.176872e-008
-5.362213e-008
-3.311067e-008
-1.885602e-008
-9.481256e-009
-3.720228e-009
-4.884770e-010
1.084015e-009
1.651405e-009
1.672626e-009
1.444674e-009
1.140871e-009
8.484348e-010
6.013680e-010
4.060153e-010
2.579996e-010
1.509039e-010
7.871028e-011
3.515073e-011
1.287403e-011
3.868397e-012
1.134483e-012
2.172230e-013
-4.605595e-013
-6.019488e-013
2.986787e-013
1.933619e-012
3.209233e-012
-9.122026e-009
-6.643340e-009
-2.787882e-009
8.542990e-010
3.049643e-009
3.486850e-009
2.759253e-009
1.844891e-009
1.466240e-009
1.735195e-009
2.241854e-009
2.420195e-009
1.854564e-009
2.872297e-010
-2.645990e-009
-7.707338e-009
-1.612981e-008
-2.942154e-008
-4.906702e-008
-7.634187e-008
-1.123200e-007
-1.579658e-007
-2.141376e-007
-2.814335e-007
-3.599700e-007
-4.492586e-007
-5.482704e-007
-6.556390e-007
-7.698692e-007
-8.894513e-007
-1.012882e-006
-1.138662e-006
-1.265333e-006
-1.391553e-006
-1.516162e-006
-1.638201e-006
-1.756871e-006
-1.871474e-006
-1.981367e-006
-2.085949e-006
-2.184655e-006
-2.276959e-006
-2.362351e-006
-2.440310e-006
-2.510286e-006
-2.571685e-006
-2.623871e-006
-2.666171e-006
-2.697878e-006
-2.718251e-006
-2.726518e-006
-2.721887e-006
-2.703555e-006
-2.670742e-006
-2.622725e-006
-2.558877e-006
-2.478736e-006
-2.382070e-006
-2.268965e-006
-2.139925e-006
-1.995980e-006
-1.838778e-006
-1.670663e-006
-1.494684e-006
-1.314542e-006
-1.134438e-006
-9.588281e-007
-7.921110e-007
-6.382688e-007
-5.005239e-007
-3.810635e-007
-2.808869e-007
-1.998033e-007
-1.365776e-007
-8.918970e-008
-5.515006e-008
-3.181236e-008
-1.663551e-008
-7.367905e-009
-2.148311e-009
4.659180e-010
1.523986e-009
1.739183e-009
1.560472e-009
1.244792e-009
9.213152e-010
6.429543e-010
4.232788e-010
2.595299e-010
1.442689e-010
6.944626e-011
2.682006e-011
7.594931e-012
2.781998e-012
4.353749e-012
6.512234e-012
6.415576e-012
3.888220e-012
4.788095e-013
-1.864136e-012
-1.119644e-008
-7.583177e-009
-2.059258e-009
2.912680e-009
5.427235e-009
5.055480e-009
2.869727e-009
6.382333e-010
-2.669509e-010
4.004242e-010
1.741207e-009
2.264906e-009
5.409878e-010
-4.515468e-009
-1.386246e-008
-2.881167e-008
-5.136615e-008
-8.415909e-008
-1.300499e-007
-1.916497e-007
-2.710196e-007
-3.695786e-007
-4.880825e-007
-6.265327e-007
-7.840197e-007
-9.586362e-007
-1.147589e-006
-1.347507e-006
-1.554828e-006
-1.766095e-006
-1.978126e-006
-2.188072e-006
-2.393442e-006
-2.592143e-006
-2.782499e-006
-2.963241e-006
-3.133439e-006
-3.292420e-006
-3.439704e-006
-3.574960e-006
-3.697996e-006
-3.808739e-006
-3.907209e-006
-3.993474e-006
-4.067613e-006
-4.129677e-006
-4.179685e-006
-4.217604e-006
-4.243345e-006
-4.256741e-006
-4.257516e-006
-4.245254e-006
-4.219362e-006
-4.179036e-006
-4.123226e-006
-4.050618e-006
-3.959652e-006
-3.848583e-006
-3.715608e-006
-3.559080e-006
-3.377800e-006
-3.171363e-006
-2.940543e-006
-2.687618e-006
-2.416587e-006
-2.133189e-006
-1.844675e-006
-1.559317e-006
-1.285679e-006
-1.031761e-006
-8.041524e-007
-6.073679e-007
-4.434929e-007
-3.122096e-007
-2.111629e-007
-1.365559e-007
-8.382657e-008
-4.826873e-008
-2.550718e-008
-1.179327e-008
-4.132448e-009
-2.815754e-010
1.337140e-009
1.763178e-009
1.633120e-009
1.303718e-009
9.521796e-010
6.509233e-010
4.184378e-010
2.504213e-010
1.360776e-010
6.458169e-011
2.600865e-011
1.055957e-011
8.269316e-012
1.014150e-011
1.005503e-011
6.060059e-012
4.882730e-014
-4.333280e-012
-7.647435e-009
-4.495359e-009
2.352653e-010
4.279027e-009
5.918398e-009
4.857937e-009
2.246504e-009
-1.252865e-010
-9.584021e-010
-2.716986e-010
4.744807e-010
-1.103546e-009
-7.594097e-009
-2.138454e-008
-4.481260e-008
-8.069633e-008
-1.327822e-007
-2.057032e-007
-3.043716e-007
-4.330814e-007
-5.947173e-007
-7.903064e-007
-1.018892e-006
-1.277576e-006
-1.561635e-006
-1.864762e-006
-2.179514e-006
-2.497984e-006
-2.812524e-006
-3.116352e-006
-3.403877e-006
-3.670781e-006
-3.913938e-006
-4.131276e-006
-4.321632e-006
-4.484613e-006
-4.620452e-006
-4.729877e-006
-4.814033e-006
-4.874429e-006
-4.912921e-006
-4.931690e-006
-4.933197e-006
-4.920115e-006
-4.895250e-006
-4.861474e-006
-4.821676e-006
-4.778721e-006
-4.735406e-006
-4.694380e-006
-4.658035e-006
-4.628350e-006
-4.606680e-006
-4.593516e-006
-4.588195e-006
-4.588620e-006
-4.591017e-006
-4.589813e-006
-4.577689e-006
-4.545882e-006
-4.484789e-006
-4.384862e-006
-4.237766e-006
-4.037659e-006
-3.782422e-006
-3.474605e-006
-3.121854e-006
-2.736606e-006
-2.334989e-006
-1.935002e-006
-1.554277e-006
-1.207869e-006
-9.065435e-007
-6.559172e-007
-4.565611e-007
-3.049065e-007
-1.946105e-007
-1.180000e-007
-6.729199e-008
-3.544057e-008
-1.659333e-008
-6.227245e-009
-1.066802e-009
1.116217e-009
1.743341e-009
1.659107e-009
1.323169e-009
9.567402e-010
6.460996e-010
4.105889e-010
2.431954e-010
1.310030e-010
6.226208e-011
2.646737e-011
1.280615e-011
1.025981e-011
9.767529e-012
6.684050e-012
1.389759e-012
-2.738118e-012
3.058234e-010
1.342278e-009
2.851027e-009
4.008337e-009
4.183028e-009
3.290097e-009
1.827158e-009
5.189323e-010
-3.056326e-010
-1.328664e-009
-4.566584e-009
-1.327772e-008
-3.158907e-008
-6.416457e-008
-1.161882e-007
-1.936353e-007
-3.034612e-007
-4.532320e-007
-6.499901e-007
-8.986037e-007
-1.200176e-006
-1.551067e-006
-1.942759e-006
-2.362481e-006
-2.794339e-006
-3.220722e-006
-3.623863e-006
-3.987373e-006
-4.297554e-006
-4.544242e-006
-4.721063e-006
-4.825151e-006
-4.856530e-006
-4.817414e-006
-4.711565e-006
-4.543817e-006
-4.319759e-006
-4.045563e-006
-3.727943e-006
-3.374167e-006
-2.992105e-006
-2.590235e-006
-2.177597e-006
-1.763699e-006
-1.358388e-006
-9.717354e-007
-6.139499e-007
-2.953060e-007
-2.606052e-008
1.836942e-007
3.242814e-007
3.868251e-007
3.637920e-007
2.497023e-007
4.199729e-008
-2.579882e-007
-6.440471e-007
-1.104258e-006
-1.620460e-006
-2.168239e-006
-2.717619e-006
-3.234614e-006
-3.683688e-006
-4.031033e-006
-4.248398e-006
-4.316934e-006
-4.230404e-006
-3.996958e-006
-3.638849e-006
-3.189777e-006
-2.690164e-006
-2.181234e-006
-1.699229e-006
-1.271077e-006
-9.123798e-007
-6.278340e-007
-4.134952e-007
-2.599048e-007
-1.551398e-007
-8.717975e-008
-4.538455e-008
-2.117256e-008
-8.123281e-009
-1.740650e-009
9.322091e-010
1.719161e-009
1.667443e-009
1.326843e-009
9.512594e-010
6.346905e-010
3.964165e-010
2.287464e-010
1.186251e-010
5.371238e-011
2.184952e-011
1.040504e-011
7.869299e-012
6.594974e-012
4.153041e-012
1.931738e-012
9.715431e-009
7.675816e-009
4.675173e-009
2.172492e-009
1.109944e-009
1.418839e-009
2.166989e-009
2.058195e-009
-2.759383e-010
-6.560574e-009
-1.962593e-008
-4.414252e-008
-8.691586e-008
-1.566865e-007
-2.636844e-007
-4.191044e-007
-6.342898e-007
-9.191538e-007
-1.279594e-006
-1.714303e-006
-2.211997e-006
-2.750223e-006
-3.296375e-006
-3.810782e-006
-4.251067e-006
-4.576759e-006
-4.753329e-006
-4.755108e-006
-4.566819e-006
-4.183686e-006
-3.610295e-006
-2.858583e-006
-1.945476e-006
-8.906890e-007
2.849757e-007
1.560708e-006
2.916184e-006
4.331620e-006
5.787561e-006
7.264568e-006
8.742942e-006
1.020257e-005
1.162287e-005
1.298290e-005
1.426144e-005
1.543708e-005
1.648829e-005
1.739339e-005
1.813049e-005
1.867762e-005
1.901292e-005
1.911517e-005
1.896461e-005
1.854409e-005
1.784075e-005
1.684802e-005
1.556805e-005
1.401423e-005
1.221369e-005
1.020935e-005
8.060941e-006
5.844494e-006
3.649562e-006
1.573813e-006
-2.851086e-007
-1.839844e-006
-3.024349e-006
-3.803655e-006
-4.179993e-006
-4.193219e-006
-3.914625e-006
-3.434939e-006
-2.849222e-006
-2.242352e-006
-1.678620e-006
-1.197388e-006
-8.146562e-007
-5.286208e-007
-3.266301e-007
-1.914294e-007
-1.055915e-007
-5.400280e-008
-2.482097e-008
-9.468280e-009
-2.137520e-009
8.611044e-010
1.724895e-009
1.670434e-009
1.312458e-009
9.236104e-010
6.006362e-010
3.621689e-010
1.994957e-010
9.772812e-011
4.162857e-011
1.632159e-011
8.203554e-012
6.998062e-012
7.123955e-012
7.064122e-012
1.715683e-008
1.230074e-008
5.328464e-009
-7.748117e-011
-1.633206e-009
2.111343e-010
2.635188e-009
1.893631e-009
-5.522927e-009
-2.303621e-008
-5.538944e-008
-1.103585e-007
-1.997007e-007
-3.388518e-007
-5.454663e-007
-8.369737e-007
-1.226996e-006
-1.720346e-006
-2.306898e-006
-2.955763e-006
-3.612084e-006
-4.198620e-006
-4.622807e-006
-4.788030e-006
-4.606299e-006
-4.009314e-006
-2.955725e-006
-1.433747e-006
5.404735e-007
2.927678e-006
5.672159e-006
8.708925e-006
1.197019e-005
1.539033e-005
1.890897e-005
2.247226e-005
2.603294e-005
2.954955e-005
3.298538e-005
3.630742e-005
3.948567e-005
4.249250e-005
4.530240e-005
4.789175e-005
5.023855e-005
5.232219e-005
5.412293e-005
5.562133e-005
5.679752e-005
5.763038e-005
5.809685e-005
5.817132e-005
5.782524e-005
5.702713e-005
5.574330e-005
5.393959e-005
5.158446e-005
4.865391e-005
4.513833e-005
4.105111e-005
3.643823e-005
3.138705e-005
2.603205e-005
2.055443e-005
1.517333e-005
1.012748e-005
5.648377e-006
1.928905e-006
-9.063624e-007
-2.821613e-006
-3.874738e-006
-4.203998e-006
-3.999013e-006
-3.463837e-006
-2.782272e-006
-2.094190e-006
-1.486929e-006
-1.000159e-006
-6.387299e-007
-3.872875e-007
-2.223171e-007
-1.199617e-007
-5.996100e-008
-2.690481e-008
-9.993098e-009
-2.161364e-009
9.235479e-010
1.750475e-009
1.646997e-009
1.258341e-009
8.586340e-010
5.391383e-010
3.127923e-010
1.657828e-010
7.875906e-011
3.347336e-011
1.430363e-011
8.985762e-012
9.148665e-012
1.015388e-011
1.996432e-008
1.381332e-008
5.161249e-009
-1.207859e-009
-2.623246e-009
-3.342029e-010
1.028293e-009
-4.616942e-009
-2.338913e-008
-6.187061e-008
-1.291804e-007
-2.393257e-007
-4.122821e-007
-6.727619e-007
-1.046116e-006
-1.550994e-006
-2.188658e-006
-2.929943e-006
-3.702773e-006
-4.385118e-006
-4.808418e-006
-4.774001e-006
-4.080459e-006
-2.555585e-006
-8.465959e-008
3.371817e-006
7.774118e-006
1.301200e-005
1.892237e-005
2.531107e-005
3.197460e-005
3.871832e-005
4.536932e-005
5.178327e-005
5.784590e-005
6.347095e-005
6.859647e-005
7.318101e-005
7.720070e-005
8.064725e-005
8.352674e-005
8.585856e-005
8.767441e-005
8.901682e-005
8.993757e-005
9.049576e-005
9.075566e-005
9.078432e-005
9.064869e-005
9.041203e-005
9.012945e-005
8.984215e-005
8.957037e-005
8.930507e-005
8.899941e-005
8.856102e-005
8.784766e-005
8.666858e-005
8.479500e-005
8.198186e-005
7.800174e-005
7.268841e-005
6.598376e-005
5.797850e-005
4.893480e-005
3.928035e-005
2.956733e-005
2.039818e-005
1.233047e-005
5.782668e-006
9.663866e-007
-2.136207e-006
-3.744387e-006
-4.209670e-006
-3.927899e-006
-3.259386e-006
-2.477459e-006
-1.752471e-006
-1.164543e-006
-7.308689e-007
-4.340308e-007
-2.434460e-007
-1.280978e-007
-6.228299e-008
-2.706200e-008
-9.608630e-009
-1.824397e-009
1.082010e-009
1.762595e-009
1.578214e-009
1.162038e-009
7.673845e-010
4.680792e-010
2.652311e-010
1.382773e-010
6.528786e-011
2.836159e-011
1.357146e-011
1.016536e-011
1.048354e-011
1.708487e-008
1.191940e-008
4.788991e-009
-3.216104e-010
-1.732145e-009
-1.783779e-009
-6.474585e-009
-2.406567e-008
-6.441416e-008
-1.400120e-007
-2.682856e-007
-4.736522e-007
-7.873379e-007
-1.242676e-006
-1.863555e-006
-2.644620e-006
-3.524728e-006
-4.359994e-006
-4.907621e-006
-4.833060e-006
-3.747888e-006
-1.275116e-006
2.872871e-006
8.824712e-006
1.650827e-005
2.564680e-005
3.579220e-005
4.638519e-005
5.682659e-005
6.654424e-005
7.504441e-005
8.194304e-005
8.697620e-005
8.999339e-005
9.093967e-005
8.983427e-005
8.675189e-005
8.181044e-005
7.516532e-005
6.700808e-005
5.756667e-005
4.710465e-005
3.591844e-005
2.433260e-005
1.269414e-005
1.366874e-006
-9.273704e-006
-1.884518e-005
-2.696354e-005
-3.325040e-005
-3.734392e-005
-3.891513e-005
-3.769136e-005
-3.348742e-005
-2.624398e-005
-1.607079e-005
-3.289344e-006
1.153289e-005
2.756807e-005
4.374615e-005
5.881732e-005
7.146487e-005
8.046480e-005
8.487441e-005
8.421697e-005
7.861636e-005
6.883307e-005
5.616895e-005
4.224550e-005
2.870238e-005
1.689516e-005
7.678994e-006
1.334729e-006
-2.362317e-006
-3.972025e-006
-4.181911e-006
-3.628872e-006
-2.792348e-006
-1.966395e-006
-1.288659e-006
-7.931640e-007
-4.603126e-007
-2.516531e-007
-1.287213e-007
-6.060051e-008
-2.528815e-008
-8.410295e-009
-1.216275e-009
1.282660e-009
1.743357e-009
1.472167e-009
1.044762e-009
6.718204e-010
4.015001e-010
2.230584e-010
1.132085e-010
5.153803e-011
2.210141e-011
1.166595e-011
9.559989e-012
9.374161e-009
7.363578e-009
4.562933e-009
2.103145e-009
-6.915081e-010
-7.484298e-009
-2.542356e-008
-6.557526e-008
-1.439216e-007
-2.829626e-007
-5.132556e-007
-8.732729e-007
-1.404228e-006
-2.134546e-006
-3.048683e-006
-4.039855e-006
-4.856848e-006
-5.068110e-006
-4.073314e-006
-1.184899e-006
4.221908e-006
1.252186e-005
2.366751e-005
3.708628e-005
5.168173e-005
6.594841e-005
7.817451e-005
8.667696e-005
9.001238e-005
8.712382e-005
7.740675e-005
6.069895e-005
3.721342e-005
7.439627e-006
-2.796067e-005
-6.824062e-005
-1.126247e-004
-1.603329e-004
-2.105801e-004
-2.625649e-004
-3.154586e-004
-3.684007e-004
-4.205041e-004
-4.708648e-004
-5.185734e-004
-5.627226e-004
-6.024108e-004
-6.367401e-004
-6.648127e-004
-6.857280e-004
-6.985864e-004
-7.025022e-004
-6.966327e-004
-6.802282e-004
-6.527065e-004
-6.137563e-004
-5.634675e-004
-5.024821e-004
-4.321463e-004
-3.546332e-004
-2.729929e-004
-1.910796e-004
-1.133116e-004
-4.423959e-005
1.205944e-005
5.267989e-005
7.651053e-005
8.455659e-005
7.977345e-005
6.640399e-005
4.903066e-005
3.164203e-005
1.698442e-005
6.361433e-006
-1.642610e-007
-3.338716e-006
-4.235421e-006
-3.874465e-006
-3.014146e-006
-2.106741e-006
-1.357480e-006
-8.172040e-007
-4.623171e-007
-2.456987e-007
-1.217589e-007
-5.521780e-008
-2.190805e-008
-6.626662e-009
-4.606084e-010
1.479413e-009
1.691546e-009
1.345110e-009
9.214332e-010
5.767986e-010
3.348141e-010
1.783224e-010
8.520845e-011
3.661596e-011
1.618603e-011
1.014157e-011
-7.285824e-010
1.579431e-009
4.266987e-009
4.084294e-009
-3.037251e-009
-2.257771e-008
-6.363554e-008
-1.422151e-007
-2.842531e-007
-5.271280e-007
-9.185041e-007
-1.509434e-006
-2.334229e-006
-3.366335e-006
-4.443985e-006
-5.177126e-006
-4.875519e-006
-2.562037e-006
2.867783e-006
1.232238e-005
2.607933e-005
4.335800e-005
6.204753e-005
7.872302e-005
8.902408e-005
8.831973e-005
7.247518e-005
3.852059e-005
-1.495285e-005
-8.774297e-005
-1.782743e-004
-2.839927e-004
-4.017945e-004
-5.284054e-004
-6.606651e-004
-7.956971e-004
-9.309720e-004
-1.064295e-003
-1.193757e-003
-1.317686e-003
-1.434622e-003
-1.543316e-003
-1.642745e-003
-1.732122e-003
-1.810898e-003
-1.878743e-003
-1.935502e-003
-1.981141e-003
-2.015678e-003
-2.039101e-003
-2.051281e-003
-2.051871e-003
-2.040199e-003
-2.015168e-003
-1.975173e-003
-1.918085e-003
-1.841339e-003
-1.742205e-003
-1.618287e-003
-1.468274e-003
-1.292869e-003
-1.095693e-003
-8.838739e-004
-6.679502e-004
-4.608783e-004
-2.761538e-004
-1.253711e-004
-1.578595e-005
5.139195e-005
8.118883e-005
8.318067e-005
6.862585e-005
4.768785e-005
2.760714e-005
1.219586e-005
2.422861e-006
-2.521294e-006
-4.166655e-006
-4.007266e-006
-3.130653e-006
-2.159786e-006
-1.362607e-006
-7.997132e-007
-4.397876e-007
-2.265334e-007
-1.083369e-007
-4.701958e-008
-1.748673e-008
-4.563031e-009
3.068376e-010
1.628651e-009
1.601853e-009
1.198996e-009
7.891584e-010
4.754430e-010
2.630988e-010
1.319307e-010
5.971123e-011
2.624965e-011
1.461679e-011
-1.009132e-008
-3.881062e-009
3.049252e-009
2.488217e-009
-1.371635e-008
-5.409483e-008
-1.321247e-007
-2.726311e-007
-5.163132e-007
-9.194509e-007
-1.545415e-006
-2.439435e-006
-3.570601e-006
-4.725837e-006
-5.363365e-006
-4.483157e-006
-6.311038e-007
7.821832e-006
2.204014e-005
4.177594e-005
6.434625e-005
8.391642e-005
9.156687e-005
7.647002e-005
2.796962e-005
-6.197825e-005
-1.968188e-004
-3.746281e-004
-5.886177e-004
-8.284275e-004
-1.081710e-003
-1.335694e-003
-1.578514e-003
-1.800178e-003
-1.993050e-003
-2.151908e-003
-2.273720e-003
-2.357330e-003
-2.403187e-003
-2.413164e-003
-2.390390e-003
-2.339081e-003
-2.264303e-003
-2.171700e-003
-2.067210e-003
-1.956825e-003
-1.846411e-003
-1.741598e-003
-1.647724e-003
-1.569807e-003
-1.512492e-003
-1.479950e-003
-1.475663e-003
-1.502066e-003
-1.559985e-003
-1.647836e-003
-1.760605e-003
-1.888711e-003
-2.017049e-003
-2.124790e-003
-2.186724e-003
-2.176919e-003
-2.074840e-003
-1.872721e-003
-1.581412e-003
-1.231178e-003
-8.654086e-004
-5.291112e-004
-2.573875e-004
-6.818785e-005
3.951932e-005
8.189599e-005
8.206357e-005
6.202272e-005
3.770179e-005
1.769789e-005
4.758676e-006
-1.821751e-006
-4.084143e-006
-4.049432e-006
-3.138191e-006
-2.120684e-006
-1.303516e-006
-7.431851e-007
-3.960702e-007
-1.970675e-007
-9.051086e-008
-3.726313e-008
-1.270261e-008
-2.539516e-009
9.586637e-010
1.690226e-009
1.464183e-009
1.030296e-009
6.468680e-010
3.715651e-010
1.953349e-010
9.400346e-011
4.344178e-011
2.392687e-011
-1.609817e-008
-8.052189e-009
-5.850867e-010
-6.536492e-009
-3.877361e-008
-1.112395e-007
-2.459761e-007
-4.818225e-007
-8.786304e-007
-1.510814e-006
-2.439829e-006
-3.644713e-006
-4.884214e-006
-5.486706e-006
-4.136709e-006
1.158736e-006