# vtk DataFile Version 3.0
vtk output
ASCII
DATASET STRUCTURED_POINTS
DIMENSIONS 100 100 1
SPACING 1 1 1
ORIGIN 0 0 0
POINT_DATA 10000
SCALARS SFBox_profile double
LOOKUP_TABLE default 
0.000000e+000
0.000000e+000
0.000000e+000
0.000000e+000
0.000000e+000
0.000000e+000
0.000000e+000
0.000000e+000
0.000000e+000
0.000000e+000
0.000000e+000
0.000000e+000
0.000000e+000
0.000000e+000
0.000000e+000
0.000000e+000
0.000000e+000
0.000000e+000
0.000000e+000
0.000000e+000
0.000000e+000
0.000000e+000
0.000000e+000
0.000000e+000
0.000000e+000
0.000000e+000
0.000000e+000
0.000000e+000
0.000000e+000
0.000000e+000
0.000000e+000
0.000000e+000
0.000000e+000
0.000000e+000
0.000000e+000
0.000000e+000
0.000000e+000
0.000000e+000
0.000000e+000
0.000000e+000
0.000000e+000
0.000000e+000
0.000000e+000
0.000000e+000
0.000000e+000
0.000000e+000
0.000000e+000
0.000000e+000
0.000000e+000
0.000000e+000
0.000000e+000
0.000000e+000
0.000000e+000
0.000000e+000
0.000000e+000
0.000000e+000
0.000000e+000
0.000000e+000
0.000000e+000
0.000000e+000
0.000000e+000
0.000000e+000
0.000000e+000
0.000000e+000
0.000000e+000
0.000000e+000
0.000000e+000
0.000000e+000
0.000000e+000
0.000000e+000
0.000000e+000
0.000000e+000
0.000000e+000
0.000000e+000
0.000000e+000
0.000000e+000
0.000000e+000
0.000000e+000
0.000000e+000
0.000000e+000
0.000000e+000
0.000000e+000
0.000000e+000
0.000000e+000
0.000000e+000
0.000000e+000
0.000000e+000
0.000000e+000
0.000000e+000
0.000000e+000
0.000000e+000
0.000000e+000
0.000000e+000
0.000000e+000
0.000000e+000
0.000000e+000
0.000000e+000
0.000000e+000
0.000000e+000
0.000000e+000
1.229500e-010
1.043123e-010
7.102956e-011
1.787799e-011
-6.956980e-011
-1.894873e-010
-2.941635e-010
-2.964643e-010
-1.283569e-010
1.847447e-010
5.009737e-010
6.294644e-010
4.548249e-010
2.870132e-011
-4.473656e-010
-7.429468e-010
-7.368089e-010
-4.725964e-010
-1.009682e-010
2.331662e-010
4.657093e-010
6.045328e-010
6.689177e-010
6.470148e-010
5.094101e-010
2.549398e-010
-6.478466e-011
-3.688315e-010
-5.951016e-010
-7.284803e-010
-7.885645e-010
-7.966142e-010
-7.561389e-010
-6.609256e-010
-5.146821e-010
-3.384860e-010
-1.595276e-010
5.002768e-012
1.527053e-010
2.876221e-010
4.100584e-010
5.148033e-010
5.969675e-010
6.571773e-010
7.006943e-010
7.326674e-010
7.550602e-010
7.675138e-010
7.697746e-010
7.626366e-010
7.471161e-010
7.235479e-010
6.914879e-010
6.497464e-010
5.961135e-010
5.276887e-010
4.425401e-010
3.413866e-010
2.270375e-010
1.017096e-010
-3.429111e-011
-1.795099e-010
-3.260618e-010
-4.583887e-010
-5.592904e-010
-6.181626e-010
-6.324729e-010
-6.003812e-010
-5.138730e-010
-3.639027e-010
-1.565195e-010
7.597606e-011
2.839569e-010
4.253748e-010
4.844076e-010
4.663457e-010
3.769036e-010
2.133760e-010
-1.635277e-011
-2.647292e-010
-4.431424e-010
-4.658658e-010
-3.117563e-010
-5.084655e-011
1.930054e-010
3.178875e-010
2.989285e-010
1.833726e-010
4.015186e-011
-8.548291e-011
-1.763965e-010
-2.183305e-010
-1.862778e-010
-6.659237e-011
1.063175e-010
2.447932e-010
2.563272e-010
1.151881e-010
-1.035879e-010
-2.648449e-010
1.042717e-010
2.422828e-011
-7.003569e-011
-1.052554e-010
-5.791859e-011
3.071502e-011
9.118932e-011
8.167155e-011
1.698751e-011
-5.027870e-011
-7.637177e-011
-5.849448e-011
-2.650323e-011
-6.780470e-012
4.145316e-012
3.042138e-011
8.291045e-011
1.366468e-010
1.450824e-010
7.996069e-011
-4.037057e-011
-1.611562e-010
-2.306881e-010
-2.334379e-010
-1.897937e-010
-1.283593e-010
-6.065647e-011
1.924413e-011
1.154722e-010
2.153193e-010
2.943274e-010
3.345807e-010
3.366153e-010
3.142591e-010
2.800633e-010
2.367516e-010
1.811755e-010
1.135717e-010
4.119475e-011
-2.647987e-011
-8.448515e-011
-1.338664e-010
-1.776358e-010
-2.164886e-010
-2.484788e-010
-2.717424e-010
-2.865349e-010
-2.946705e-010
-2.976919e-010
-2.959145e-010
-2.887986e-010
-2.756245e-010
-2.558042e-010
-2.291018e-010
-1.959439e-010
-1.572585e-010
-1.135368e-010
-6.417382e-011
-8.522980e-012
5.176075e-011
1.116981e-010
1.651816e-010
2.085615e-010
2.413973e-010
2.628193e-010
2.675826e-010
2.476414e-010
1.995346e-010
1.303858e-010
5.510668e-011
-1.359544e-011
-7.202044e-011
-1.211143e-010
-1.557003e-010
-1.611510e-010
-1.249052e-010
-5.327264e-011
2.498734e-011
7.584218e-011
8.419322e-011
6.245634e-011
3.530857e-011
1.629563e-011
8.149094e-014
-2.289876e-011
-4.718407e-011
-5.185823e-011
-2.220712e-011
2.857955e-011
6.296986e-011
4.943578e-011
-6.789538e-012
-6.274175e-011
-7.113141e-011
-2.091674e-011
5.057737e-011
8.619445e-011
5.546326e-011
-1.953972e-011
-8.089567e-011
3.250128e-011
-6.557913e-011
-1.713013e-010
-1.731802e-010
-2.063983e-011
2.269238e-010
4.209710e-010
4.114321e-010
1.507431e-010
-2.566053e-010
-6.009959e-010
-6.880845e-010
-4.550859e-010
-5.579688e-012
4.567669e-010
7.444020e-010
7.726346e-010
5.705272e-010
2.308901e-010
-1.485469e-010
-4.927545e-010
-7.458513e-010
-8.630835e-010
-8.177136e-010
-6.165462e-010
-3.041877e-010
5.315160e-011
3.932886e-010
6.746756e-010
8.764928e-010
9.900682e-010
1.013413e-009
9.522517e-010
8.219037e-010
6.443278e-010
4.413918e-010
2.298705e-010
2.130383e-011
-1.754211e-010
-3.527185e-010
-5.053561e-010
-6.317973e-010
-7.336964e-010
-8.138588e-010
-8.746109e-010
-9.176928e-010
-9.449885e-010
-9.588054e-010
-9.613150e-010
-9.537606e-010
-9.361323e-010
-9.074361e-010
-8.662403e-010
-8.111196e-010
-7.407431e-010
-6.536230e-010
-5.479540e-010
-4.221457e-010
-2.761253e-010
-1.125714e-010
6.292962e-011
2.427103e-010
4.174995e-010
5.756452e-010
7.021771e-010
7.799929e-010
7.938687e-010
7.350321e-010
6.033451e-010
4.070031e-010
1.626638e-010
-1.023343e-010
-3.488341e-010
-5.313181e-010
-6.109645e-010
-5.696168e-010
-4.159102e-010
-1.816170e-010
8.542886e-011
3.260520e-010
4.757317e-010
4.813087e-010
3.290351e-010
6.687687e-011
-2.029718e-010
-3.685190e-010
-3.664299e-010
-2.155519e-010
-1.864396e-012
1.734042e-010
2.456772e-010
2.078095e-010
9.664922e-011
-3.440158e-011
-1.363486e-010
-1.747990e-010
-1.368763e-010
-3.826201e-011
7.721917e-011
1.541943e-010
-1.086344e-010
-9.472810e-011
-7.125794e-011
-2.981718e-011
5.131100e-011
1.751937e-010
2.898675e-010
2.976426e-010
1.258991e-010
-1.898877e-010
-4.907766e-010
-5.821881e-010
-3.714834e-010
5.200835e-011
4.651277e-010
6.559760e-010
5.555954e-010
2.596803e-010
-6.282735e-011
-2.887286e-010
-3.936801e-010
-4.169132e-010
-3.927273e-010
-3.186512e-010
-1.793630e-010
1.250848e-011
2.068841e-010
3.466280e-010
4.049886e-010
3.948137e-010
3.464931e-010
2.807961e-010
2.012375e-010
1.061740e-010
2.165556e-012
-9.587380e-011
-1.750178e-010
-2.323097e-010
-2.729185e-010
-3.025589e-010
-3.228151e-010
-3.327206e-010
-3.327905e-010
-3.264116e-010
-3.177659e-010
-3.093329e-010
-3.016195e-010
-2.946796e-010
-2.892341e-010
-2.862863e-010
-2.861312e-010
-2.881366e-010
-2.914045e-010
-2.952248e-010
-2.986113e-010
-2.995690e-010
-2.952844e-010
-2.833052e-010
-2.623053e-010
-2.313061e-010
-1.882902e-010
-1.305743e-010
-5.773639e-011
2.550896e-011
1.100669e-010
1.867985e-010
2.496628e-010
2.933887e-010
3.081835e-010
2.796826e-010
1.986268e-010
7.335935e-011
-6.819355e-011
-1.920318e-010
-2.755572e-010
-3.115736e-010
-2.958737e-010
-2.164397e-010
-6.441645e-011
1.373195e-010
3.191976e-010
3.917463e-010
3.047333e-010
9.192300e-011
-1.416014e-010
-2.853559e-010
-2.908744e-010
-1.879739e-010
-4.481934e-011
8.409809e-011
1.753469e-010
2.162176e-010
1.853562e-010
6.809286e-011
-1.057420e-010
-2.496841e-010
-2.658314e-010
-1.218364e-010
1.070436e-010
2.774915e-010
-2.604036e-010
-5.636587e-011
1.794558e-010
2.601495e-010
1.341061e-010
-8.488927e-011
-2.231463e-010
-1.898648e-010
-3.563776e-011
1.122461e-010
1.663175e-010
1.379583e-010
9.428738e-011
6.949466e-011
2.692349e-011
-8.945587e-011
-2.703794e-010
-4.158732e-010
-4.034162e-010
-1.905833e-010
1.422887e-010
4.475169e-010
6.114991e-010
6.141743e-010
5.065157e-010
3.441257e-010
1.458418e-010
-9.235840e-011
-3.578598e-010
-6.055194e-010
-7.813602e-010
-8.582016e-010
-8.471544e-010
-7.781194e-010
-6.732084e-010
-5.383435e-010
-3.747254e-010
-1.921565e-010
-9.173129e-012
1.576504e-010
3.021069e-010
4.266047e-010
5.344571e-010
6.251921e-010
6.963024e-010
7.473172e-010
7.809247e-010
8.005793e-010
8.079956e-010
8.030711e-010
7.853180e-010
7.544998e-010
7.099709e-010
6.502927e-010
5.741651e-010
4.815371e-010
3.732111e-010
2.494416e-010
1.101060e-010
-4.237029e-011
-1.999961e-010
-3.501710e-010
-4.807062e-010
-5.835953e-010
-6.526262e-010
-6.774322e-010
-6.429868e-010
-5.395014e-010
-3.753216e-010
-1.787182e-010
1.613313e-011
1.860935e-010
3.208023e-010
4.077430e-010
4.212416e-010
3.362903e-010
1.608593e-010
-4.676725e-011
-2.025979e-010
-2.505793e-010
-1.990181e-010
-1.052646e-010
-2.355494e-011
3.247547e-011
7.785716e-011
1.145612e-010
1.131429e-010
4.486166e-011
-6.858635e-011
-1.488470e-010
-1.202864e-010
1.364234e-011
1.544288e-010
1.814062e-010
5.731701e-011
-1.285664e-010
-2.260196e-010
-1.483349e-010
5.046439e-011
2.151061e-010
-2.946505e-010
1.138113e-012
3.387890e-010
4.274248e-010
1.636207e-010
-2.872611e-010
-6.098235e-010
-5.661144e-010
-1.625824e-010
3.618884e-010
7.066647e-010
7.028050e-010
3.909908e-010
-4.908292e-011
-4.340515e-010
-6.634206e-010
-7.139743e-010
-5.903127e-010
-3.041844e-010
9.956508e-011
5.177835e-010
8.152877e-010
8.952143e-010
7.535686e-010
4.690374e-010
1.404817e-010
-1.695569e-010
-4.417239e-010
-6.676936e-010
-8.240469e-010
-8.803990e-010
-8.273401e-010
-6.896692e-010
-5.102339e-010
-3.222431e-010
-1.370092e-010
4.591636e-011
2.224846e-010
3.800267e-010
5.065177e-010
6.001134e-010
6.684433e-010
7.201887e-010
7.588702e-010
7.840713e-010
7.963457e-010
7.993810e-010
7.978098e-010
7.942566e-010
7.889150e-010
7.810692e-010
7.699575e-010
7.542095e-010
7.314640e-010
6.992458e-010
6.557777e-010
5.990332e-010
5.250490e-010
4.285868e-010
3.070513e-010
1.640200e-010
7.943297e-012
-1.530270e-010
-3.134183e-010
-4.654301e-010
-5.913738e-010
-6.642625e-010
-6.604618e-010
-5.743400e-010
-4.202174e-010
-2.197522e-010
9.687492e-012
2.498356e-010
4.645441e-010
5.954113e-010
5.868094e-010
4.258390e-010
1.611618e-010
-1.199931e-010
-3.379112e-010
-4.496006e-010
-4.428690e-010
-3.177641e-010
-8.980984e-011
1.839551e-010
3.961376e-010
4.338002e-010
2.595125e-010
-3.946742e-011
-2.907927e-010
-3.497558e-010
-2.006334e-010
3.590291e-011
1.965503e-010
1.946977e-010
7.159420e-011
-5.443654e-011
-9.086691e-011
-3.902962e-011
2.357682e-011
-1.093299e-010
3.484784e-011
2.022428e-010
2.411629e-010
7.829658e-011
-2.127932e-010
-4.405617e-010
-4.206427e-010
-1.182242e-010
3.034889e-010
5.814324e-010
5.348068e-010
1.930737e-010
-2.303864e-010
-4.942633e-010
-4.874665e-010
-2.717434e-010
1.406387e-012
2.082492e-010
3.071819e-010
3.116597e-010
2.396693e-010
9.955640e-011
-8.630332e-011
-2.643658e-010
-3.702464e-010
-3.691205e-010
-2.746717e-010
-1.295106e-010
2.942096e-011
1.862346e-010
3.345137e-010
4.604747e-010
5.429983e-010
5.687587e-010
5.430621e-010
4.840695e-010
4.078725e-010
3.204246e-010
2.221784e-010
1.168820e-010
1.373518e-011
-7.812371e-011
-1.551534e-010
-2.189685e-010
-2.716996e-010
-3.129075e-010
-3.405485e-010
-3.534471e-010
-3.520153e-010
-3.371235e-010
-3.092186e-010
-2.685720e-010
-2.155632e-010
-1.502725e-010
-7.253616e-011
1.639689e-011
1.119458e-010
2.067484e-010
2.938457e-010
3.688063e-010
4.275088e-010
4.618769e-010
4.600194e-010
4.134352e-010
3.252001e-010
2.100174e-010
8.528535e-011
-3.674209e-011
-1.461591e-010
-2.260226e-010
-2.514200e-010
-2.047924e-010
-9.546201e-011
3.787659e-011
1.477104e-010
2.028945e-010
1.954619e-010
1.286496e-010
9.001500e-012
-1.412794e-010
-2.675031e-010
-2.948540e-010
-1.788343e-010
4.402862e-011
2.589524e-010
3.420630e-010
2.464432e-010
3.457990e-011
-1.688061e-010
-2.618807e-010
-2.208163e-010
-9.248690e-011
5.158397e-011
1.546708e-010
1.866749e-010
1.411231e-010
3.563169e-011
-8.628751e-011
-1.677317e-010
2.463825e-010
4.499538e-011
-1.775906e-010
-2.380873e-010
-1.060909e-010
8.943509e-011
1.926371e-010
1.544933e-010
4.533876e-011
-4.431661e-011
-9.610050e-011
-1.525764e-010
-2.275133e-010
-2.507884e-010
-1.225223e-010
1.710150e-010
5.013350e-010
6.700050e-010
5.524228e-010
1.871927e-010
-2.608497e-010
-6.191891e-010
-8.007656e-010
-8.085391e-010
-6.798176e-010
-4.422667e-010
-1.177528e-010
2.514175e-010
5.980572e-010
8.576363e-010
9.989068e-010
1.028081e-009
9.682586e-010
8.391645e-010
6.545893e-010
4.313375e-010
1.930421e-010
-3.701086e-011
-2.450738e-010
-4.279346e-010
-5.863297e-010
-7.192846e-010
-8.246729e-010
-9.030309e-010
-9.588407e-010
-9.978819e-010
-1.024060e-009
-1.038834e-009
-1.042725e-009
-1.036493e-009
-1.020925e-009
-9.960975e-010
-9.609586e-010
-9.131376e-010
-8.489434e-010
-7.641876e-010
-6.559426e-010
-5.238172e-010
-3.692909e-010
-1.941424e-010
-9.825429e-013
2.031030e-010
4.033431e-010
5.790995e-010
7.102553e-010
7.820804e-010
7.841931e-010
7.075760e-010
5.479252e-010
3.163404e-010
4.667277e-011
-2.116834e-010
-4.124208e-010
-5.259875e-010
-5.378331e-010
-4.411416e-010
-2.428879e-010
1.628453e-011
2.545813e-010
3.794132e-010
3.442466e-010
1.846862e-010
-3.981089e-012
-1.326829e-010
-1.703317e-010
-1.397201e-010
-7.472787e-011
7.173175e-012
9.030318e-011
1.358698e-010
9.664212e-011
-2.830933e-011
-1.600421e-010
-1.845849e-010
-5.471885e-011
1.463355e-010
2.560015e-010
1.691682e-010
-6.003392e-011
-2.523497e-010
5.414202e-010
5.140125e-011
-5.008411e-010
-6.495228e-010
-2.669767e-010
3.517175e-010
7.428986e-010
6.375665e-010
1.373861e-010
-4.097104e-010
-6.914693e-010
-6.244533e-010
-3.313625e-010
1.781146e-011
3.257586e-010
5.590511e-010
6.737129e-010
5.951562e-010
2.880827e-010
-1.658190e-010
-5.826247e-010
-7.872651e-010
-7.239010e-010
-4.703717e-010
-1.572201e-010
1.238442e-010
3.458768e-010
5.091767e-010
6.006489e-010
5.950582e-010
4.860007e-010
3.036556e-010
9.843575e-011
-9.009991e-011
-2.479287e-010
-3.766761e-010
-4.768766e-010
-5.432012e-010
-5.720376e-010
-5.684001e-010
-5.436213e-010
-5.078284e-010
-4.659618e-010
-4.200452e-010
-3.731359e-010
-3.301081e-010
-2.953814e-010
-2.709598e-010
-2.568149e-010
-2.526259e-010
-2.588342e-010
-2.761932e-010
-3.044731e-010
-3.415119e-010
-3.834120e-010
-4.257273e-010
-4.644142e-010
-4.952326e-010
-5.120154e-010
-5.062326e-010
-4.697104e-010
-3.987969e-010
-2.958301e-010
-1.665242e-010
-1.750071e-011
1.409626e-010
2.889570e-010
3.968582e-010
4.366266e-010
3.968813e-010
2.871341e-010
1.272138e-010
-6.378929e-011
-2.626309e-010
-4.262295e-010
-4.917430e-010
-4.094910e-010
-1.882336e-010
9.206183e-011
3.215285e-010
4.245304e-010
3.907992e-010
2.531931e-010
4.973353e-011
-1.803828e-010
-3.691068e-010
-4.171770e-010
-2.573500e-010
5.889467e-011
3.496500e-010
4.152374e-010
2.012093e-010
-1.356587e-010
-3.386102e-010
-2.598003e-010
1.432197e-011
2.388046e-010
2.255097e-010
6.436571e-012
-2.023156e-010
5.035780e-010
5.017054e-011
-4.668876e-010
-6.127246e-010
-2.538777e-010
3.396905e-010
7.116617e-010
5.783830e-010
4.278459e-011
-5.011880e-010
-6.827554e-010
-4.237441e-010
4.436955e-011
3.971014e-010
4.599757e-010
2.825997e-010
2.761264e-011
-1.809477e-010
-3.087470e-010
-3.557629e-010
-2.977046e-010
-1.038826e-010
1.973540e-010
4.956939e-010
6.588055e-010
6.210844e-010
4.168174e-010
1.344268e-010
-1.536117e-010
-4.189630e-010
-6.535123e-010
-8.369048e-010
-9.357854e-010
-9.300947e-010
-8.318190e-010
-6.754444e-010
-4.930058e-010
-2.998439e-010
-1.003890e-010
9.896094e-011
2.859046e-010
4.489246e-010
5.842613e-010
6.951921e-010
7.859385e-010
8.575514e-010
9.090341e-010
9.405797e-010
9.545055e-010
9.531855e-010
9.367813e-010
9.032810e-010
8.504854e-010
7.775054e-010
6.841898e-010
5.695285e-010
4.316724e-010
2.706504e-010
9.149945e-011
-9.572708e-011
-2.793936e-010
-4.489403e-010
-5.928345e-010
-6.942976e-010
-7.325374e-010
-6.929409e-010
-5.784685e-010
-4.099559e-010
-2.137048e-010
-1.031703e-011
1.812025e-010
3.298412e-010
3.924909e-010
3.398947e-010
1.889725e-010
5.374958e-012
-1.349104e-010
-1.921679e-010
-1.735561e-010
-1.031455e-010
5.811214e-012
1.380539e-010
2.418029e-010
2.330459e-010
6.472182e-011
-1.966128e-010
-3.803625e-010
-3.325098e-010
-5.514966e-011
2.687637e-010
4.076161e-010
2.665593e-010
-3.539919e-011
-2.663355e-010
-2.720080e-010
-9.074542e-011
1.001875e-010
1.486783e-010
5.285705e-011
-5.784252e-011
5.577875e-011
1.487919e-011
-4.189951e-011
-6.957801e-011
-3.207230e-011
5.093686e-011
9.615299e-011
2.669355e-011
-1.305187e-010
-2.300136e-010
-1.244381e-010
1.780391e-010
4.746841e-010
5.116467e-010
1.967505e-010
-3.100212e-010
-7.120167e-010
-7.918810e-010
-5.409541e-010
-1.140363e-010
3.124698e-010
6.368779e-010
8.235500e-010
8.488780e-010
6.879989e-010
3.538759e-010
-7.270276e-011
-4.719894e-010
-7.514434e-010
-8.859769e-010
-9.009148e-010
-8.272005e-010
-6.782523e-010
-4.627083e-010
-2.053405e-010
5.384729e-011
2.808505e-010
4.642170e-010
6.107128e-010
7.287573e-010
8.187796e-010
8.775612e-010
9.071465e-010
9.166732e-010
9.163313e-010
9.115434e-010
9.033043e-010
8.924996e-010
8.822718e-010
8.761598e-010
8.750771e-010
8.769399e-010
8.789031e-010
8.788863e-010
8.742155e-010
8.592052e-010
8.253613e-010
7.649753e-010
6.744275e-010
5.533407e-010
4.010716e-010
2.166747e-010
5.387479e-012
-2.142253e-010
-4.121416e-010
-5.590729e-010
-6.377623e-010
-6.417467e-010
-5.653083e-010
-4.018737e-010
-1.600606e-010
1.177768e-010
3.606647e-010
5.027809e-010
5.178381e-010
4.217312e-010
2.459594e-010
1.874933e-011
-2.208427e-010
-3.997853e-010
-4.284381e-010
-2.681128e-010
9.981751e-012
2.476549e-010
3.068364e-010
1.741744e-010
-3.257679e-011
-1.635269e-010
-1.506942e-010
-3.996749e-011
7.059339e-011
1.137172e-010
8.452602e-011
1.580616e-011
-5.628718e-011
-1.028410e-010
-1.005480e-010
-4.201949e-011
4.724957e-011
1.141308e-010
-5.544510e-010
-5.595880e-011
4.906367e-010
6.211730e-010
2.482863e-010
-3.066368e-010
-6.245234e-010
-5.265294e-010
-1.500108e-010
2.400183e-010
4.716689e-010
5.202826e-010
4.156316e-010
1.670857e-010
-1.979665e-010
-5.583259e-010
-7.207698e-010
-5.571568e-010
-1.272089e-010
3.450677e-010
6.282818e-010
6.312845e-010
4.210991e-010
1.269703e-010
-1.565712e-010
-3.873969e-010
-5.366696e-010
-5.662075e-010
-4.526355e-010
-2.208016e-010
6.110301e-011
3.232270e-010
5.295131e-010
6.763635e-010
7.674742e-010
7.984661e-010
7.646417e-010
6.752289e-010
5.533924e-010
4.220405e-010
2.921329e-010
1.646763e-010
4.065624e-011
-7.379929e-011
-1.711997e-010
-2.485590e-010
-3.078229e-010
-3.513336e-010
-3.784270e-010
-3.866064e-010
-3.746112e-010
-3.430284e-010
-2.921326e-010
-2.205976e-010
-1.274898e-010
-1.535290e-011
1.095995e-010
2.404136e-010
3.710471e-010
4.934479e-010
5.933007e-010
6.514566e-010
6.527170e-010
5.942456e-010
4.846722e-010
3.356456e-010
1.578825e-010
-3.124301e-011
-1.984572e-010
-3.009976e-010
-3.103353e-010
-2.319601e-010
-9.970740e-011
4.922088e-011
1.888925e-010
2.928124e-010
3.179772e-010
2.211170e-010
6.781935e-012
-2.422066e-010
-3.992323e-010
-3.778433e-010
-1.929226e-010
5.574315e-011
2.558072e-010
3.398816e-010
2.904080e-010
1.226047e-010
-1.099635e-010
-3.006520e-010
-3.247783e-010
-1.374565e-010
1.502211e-010
3.230129e-010
2.350624e-010
-4.492114e-011
-2.735821e-010
-2.467388e-010
7.197065e-012
2.477320e-010
-8.866921e-010
-1.109695e-010
7.409546e-010
9.421633e-010
3.557730e-010
-4.931275e-010
-9.099958e-010
-6.161672e-010
7.869480e-011
6.092358e-010
6.380540e-010
2.619536e-010
-1.718707e-010
-3.926641e-010
-3.639101e-010
-1.953280e-010
1.833283e-011
2.442104e-010
4.398365e-010
5.032024e-010
3.357230e-010
-4.668777e-011
-4.871682e-010
-7.867144e-010
-8.346591e-010
-6.532781e-010
-3.379919e-010
2.558613e-011
3.891951e-010
7.157955e-010
9.568932e-010
1.067729e-009
1.038252e-009
8.995912e-010
6.987640e-010
4.703343e-010
2.310150e-010
-7.154215e-012
-2.274103e-010
-4.135176e-010
-5.598012e-010
-6.721013e-010
-7.591863e-010
-8.253475e-010
-8.712642e-010
-8.992759e-010
-9.152632e-010
-9.253823e-010
-9.325375e-010
-9.366449e-010
-9.371063e-010
-9.334515e-010
-9.234687e-010
-9.020299e-010
-8.628076e-010
-8.007894e-010
-7.122386e-010
-5.926919e-010
-4.374300e-010
-2.465196e-010
-3.001248e-011
1.930383e-010
4.014355e-010
5.767124e-010
7.007082e-010
7.516878e-010
7.099756e-010
5.733145e-010
3.668249e-010
1.337785e-010
-8.575848e-011
-2.657074e-010
-3.841992e-010
-4.123387e-010
-3.275983e-010
-1.469843e-010
5.901378e-011
2.002982e-010
2.257797e-010
1.508868e-010
2.970071e-011
-8.996600e-011
-1.756534e-010
-1.874063e-010
-8.181826e-011
1.284983e-010
3.236841e-010
3.302025e-010
7.693875e-011
-2.890628e-010
-4.789627e-010
-3.073351e-010
1.127108e-010
4.363274e-010
3.873840e-010
1.901989e-011
-3.266216e-010
-3.372767e-010
-2.618081e-011
2.854997e-010
-6.370124e-010
-8.727688e-011
5.065465e-010
6.233930e-010
1.845155e-010
-3.922781e-010
-5.791801e-010
-2.134719e-010
3.642699e-010
6.247450e-010
3.227954e-010
-2.987167e-010
-7.386678e-010
-6.665208e-010
-1.607418e-010
4.170702e-010
7.401144e-010
7.204272e-010
4.656766e-010
1.133023e-010
-2.598508e-010
-5.985154e-010
-8.090519e-010
-7.867524e-010
-5.074531e-010
-7.240830e-011
3.517191e-010
6.393579e-010
7.594125e-010
7.445791e-010
6.321938e-010
4.418285e-010
1.949764e-010
-6.607716e-011
-2.900677e-010
-4.446689e-010
-5.281685e-010
-5.557958e-010
-5.402585e-010
-4.866178e-010
-4.003039e-010
-2.932331e-010
-1.801092e-010
-7.115898e-011
2.952904e-011
1.196531e-010
1.949449e-010
2.499995e-010
2.811019e-010
2.869170e-010
2.670138e-010
2.211522e-010
1.504003e-010
5.809457e-011
-5.079361e-011
-1.702552e-010
-2.918148e-010
-4.025739e-010
-4.864895e-010
-5.293592e-010
-5.228748e-010
-4.638562e-010
-3.517742e-010
-1.914130e-010
-6.938498e-013
1.865023e-010
3.311769e-010
4.071679e-010
4.088042e-010
3.414156e-010
2.099404e-010
2.513608e-011
-1.775102e-010
-3.353472e-010
-3.896443e-010
-3.259936e-010
-1.807767e-010
-5.679827e-012
1.659275e-010
3.081545e-010
3.682291e-010
2.766859e-010
2.533637e-011
-2.645078e-010
-3.909742e-010
-2.373257e-010
9.302929e-011
3.306465e-010
2.693411e-010
-3.560510e-011
-3.045255e-010
-2.894441e-010
-8.806339e-012
2.705844e-010
2.908731e-010
4.873263e-011
-2.103668e-010
-2.390840e-010
-2.905870e-011
1.907527e-010
9.686805e-011
1.511766e-011
-8.537542e-011
-1.423404e-010
-1.310283e-010
-4.703977e-011
1.085933e-010
2.923796e-010
3.813676e-010
2.346001e-010
-1.547179e-010
-5.715840e-010
-6.983057e-010
-3.789107e-010
2.138331e-010
6.893109e-010
7.438523e-010
3.842125e-010
-1.194474e-010
-4.743230e-010
-5.600102e-010
-4.300112e-010
-1.864725e-010
1.074518e-010
4.082590e-010
6.396722e-010
7.037156e-010
5.527740e-010
2.372582e-010
-1.272968e-010
-4.379752e-010
-6.504010e-010
-7.633866e-010
-7.802755e-010
-6.956836e-010
-5.124195e-010
-2.566176e-010
3.133437e-011
3.190275e-010
5.929432e-010
8.507820e-010
1.089024e-009
1.300018e-009
1.477822e-009
1.622580e-009
1.738201e-009
1.827470e-009
1.890351e-009
1.925785e-009
1.933383e-009
1.913142e-009
1.864423e-009
1.785574e-009
1.673992e-009
1.526354e-009
1.340002e-009
1.115727e-009
8.598309e-010
5.832029e-010
2.990030e-010
2.307703e-011
-2.226856e-010
-4.104681e-010
-5.156612e-010
-5.299925e-010
-4.657628e-010
-3.459994e-010
-1.921291e-010
-2.456128e-011
1.264900e-010
2.210659e-010
2.319962e-010
1.698941e-010
7.785209e-011
-5.535938e-012
-7.349352e-011
-1.321611e-010
-1.576674e-010
-9.449068e-011
7.889231e-011
2.819728e-010
3.583794e-010
2.054606e-010
-1.083041e-010
-3.694795e-010
-3.885633e-010
-1.612112e-010
1.312600e-010
2.807230e-010
2.181189e-010
4.070105e-011
-9.991086e-011
-1.252632e-010
-6.352186e-011
9.994624e-012
4.491928e-011
3.849441e-011
1.336800e-011
-9.960708e-012
-2.251503e-011
8.522370e-010
1.139313e-010
-6.774411e-010
-8.471305e-010
-3.214728e-010
3.864051e-010
7.031883e-010
4.772572e-010
-2.637244e-012
-3.568848e-010
-4.229095e-010
-2.689372e-010
-2.423801e-011
2.236081e-010
3.922187e-010
3.686108e-010
9.000127e-011
-3.386956e-010
-6.609344e-010
-6.492415e-010
-2.863380e-010
2.295170e-010
6.485342e-010
8.342784e-010
7.920376e-010
5.858492e-010
2.673948e-010
-1.169170e-010
-4.879575e-010
-7.410254e-010
-8.026235e-010
-6.738569e-010
-4.144727e-010
-9.018246e-011
2.610987e-010
6.215380e-010
9.704373e-010
1.279605e-009
1.528837e-009
1.718106e-009
1.861414e-009
1.971320e-009
2.051489e-009
2.101721e-009
2.125631e-009
2.131625e-009
2.128112e-009
2.119783e-009
2.108316e-009
2.095064e-009
2.082166e-009
2.071281e-009
2.061440e-009
2.047633e-009
2.021180e-009
1.971980e-009
1.891064e-009
1.771085e-009
1.604765e-009
1.385317e-009
1.112333e-009
7.997499e-010
4.768934e-010
1.785468e-010
-6.765652e-011
-2.442917e-010
-3.378074e-010
-3.373681e-010
-2.480217e-010
-1.043225e-010
3.962634e-011
1.439858e-010
2.070037e-010
2.475894e-010
2.628499e-010
2.152850e-010
7.765437e-011
-1.085409e-010
-2.365271e-010
-2.161711e-010
-5.976580e-011
1.183746e-010
1.929991e-010
1.224041e-010
-3.553293e-011
-1.795695e-010
-2.267585e-010
-1.414077e-010
5.064524e-011
2.503458e-010
3.149025e-010
1.590031e-010
-1.379318e-010
-3.493827e-010
-2.833293e-010
2.132138e-011
2.977230e-010
2.902883e-010
8.966358e-012
-2.688559e-010
1.128806e-009
1.161097e-010
-9.219992e-010
-1.043275e-009
-2.239628e-010
6.981933e-010
8.795027e-010
2.419996e-010
-5.499859e-010
-7.843820e-010
-3.312471e-010
3.516198e-010
7.192325e-010
5.886524e-010
1.602612e-010
-2.704995e-010
-5.442745e-010
-6.315734e-010
-5.212529e-010
-2.027515e-010
2.499339e-010
6.459338e-010
7.842350e-010
6.040509e-010
2.231192e-010
-1.665346e-010
-4.292086e-010
-5.252535e-010
-4.627711e-010
-2.498029e-010
9.880360e-011
5.315119e-010
9.641576e-010
1.322921e-009
1.580161e-009
1.748596e-009
1.848931e-009
1.889473e-009
1.872479e-009
1.808688e-009
1.718129e-009
1.617950e-009
1.513853e-009
1.404314e-009
1.290396e-009
1.179572e-009
1.081359e-009
1.001727e-009
9.423990e-010
9.042448e-010
8.899871e-010
9.033933e-010
9.461546e-010
1.015663e-009
1.105746e-009
1.209345e-009
1.319681e-009
1.427441e-009
1.516435e-009
1.563895e-009
1.548459e-009
1.460173e-009
1.303228e-009
1.090160e-009
8.372529e-010
5.690385e-010
3.239785e-010
1.446903e-010
5.176975e-011
2.600155e-011
2.419971e-011
1.903963e-011
2.084623e-011
5.405682e-011
1.133927e-010
1.526446e-010
1.233366e-010
2.142206e-011
-1.083394e-010
-2.077125e-010
-2.344467e-010
-1.651220e-010
-1.921753e-012
1.953325e-010
2.996431e-010
1.964006e-010
-8.225378e-011
-3.196812e-010
-2.784390e-010
4.933719e-011
3.750825e-010
3.620087e-010
-2.161452e-011
-4.232659e-010
-4.345262e-010
-1.842067e-011
4.223791e-010
4.423385e-010
1.743834e-011
-4.184012e-010
7.450997e-010
1.338597e-011
-6.810358e-010
-6.396078e-010
6.694579e-011
6.942157e-010
5.894824e-010
-1.576696e-010
-8.186314e-010
-7.496834e-010
-1.381604e-012
7.641105e-010
9.136031e-010
3.885720e-010
-3.295172e-010
-7.086742e-010
-5.886203e-010
-1.858494e-010
2.005913e-010
4.242283e-010
4.834671e-010
3.945389e-010
1.496860e-010
-2.093813e-010
-5.395971e-010
-6.644853e-010
-4.991316e-010
-9.997026e-011
4.005387e-010
8.912452e-010
1.318219e-009
1.655800e-009
1.876864e-009
1.962212e-009
1.925359e-009
1.811055e-009
1.664739e-009
1.506596e-009
1.334362e-009
1.143694e-009
9.399920e-010
7.330237e-010
5.276420e-010
3.242232e-010
1.267188e-010
-5.311828e-011
-2.004316e-010
-3.050153e-010
-3.641360e-010
-3.793134e-010
-3.522819e-010
-2.846871e-010
-1.807659e-010
-4.865455e-011
1.024324e-010
2.669536e-010
4.444005e-010
6.346154e-010
8.309855e-010
1.018591e-009
1.179172e-009
1.296475e-009
1.355412e-009
1.338864e-009
1.233368e-009
1.045685e-009
8.137740e-010
5.931114e-010
4.231426e-010
3.042175e-010
2.087347e-010
1.138747e-010
2.047749e-011
-5.670384e-011
-1.052644e-010
-1.147044e-010
-7.256102e-011
1.480926e-011
9.171129e-011
7.261036e-011
-6.815546e-011
-2.222749e-010
-2.086920e-010
3.932364e-011
3.479826e-010
4.197631e-010
1.304510e-010
-2.957371e-010
-4.635116e-010
-2.010520e-010
2.374363e-010
4.095244e-010
1.429705e-010
-2.724323e-010
-3.855994e-010
-6.948251e-011
3.355341e-010
3.866333e-010
2.102090e-011
-3.720448e-010
-5.678697e-011
-1.004658e-010
-7.517082e-011
8.751855e-011
2.842545e-010
2.979602e-010
2.080511e-011
-3.748182e-010
-5.334552e-010
-2.458287e-010
3.001129e-010
6.359063e-010
4.341325e-010
-1.642089e-010
-6.548700e-010
-6.206581e-010
-9.215260e-011
5.138945e-010
7.795533e-010
6.019792e-010
1.796752e-010
-2.299834e-010
-4.954422e-010
-5.969528e-010
-5.216274e-010
-2.357250e-010
2.457786e-010
8.092256e-010
1.294254e-009