# vtk DataFile Version 3.0
vtk output
ASCII
DATASET STRUCTURED_POINTS
DIMENSIONS 100 100 1
SPACING 1 1 1
ORIGIN 0 0 0
POINT_DATA 10000
SCALARS SFBox_profile double
LOOKUP_TABLE default 
9.439931e-003
9.439933e-003
9.439937e-003
9.439943e-003
9.439951e-003
9.439962e-003
9.439975e-003
9.439988e-003
9.439999e-003
9.440001e-003
9.439983e-003
9.439929e-003
9.439812e-003
9.439598e-003
9.439240e-003
9.438677e-003
9.437840e-003
9.436649e-003
9.435022e-003
9.432878e-003
9.430145e-003
9.426771e-003
9.422726e-003
9.418008e-003
9.412643e-003
9.406685e-003
9.400209e-003
9.393307e-003
9.386079e-003
9.378625e-003
9.371042e-003
9.363414e-003
9.355814e-003
9.348301e-003
9.340917e-003
9.333691e-003
9.326639e-003
9.319770e-003
9.313084e-003
9.306577e-003
9.300245e-003
9.294081e-003
9.288084e-003
9.282254e-003
9.276596e-003
9.271120e-003
9.265840e-003
9.260773e-003
9.255944e-003
9.251377e-003
9.247103e-003
9.243153e-003
9.239565e-003
9.236377e-003
9.233631e-003
9.231373e-003
9.229653e-003
9.228522e-003
9.228037e-003
9.228258e-003
9.229245e-003
9.231065e-003
9.233782e-003
9.237463e-003
9.242173e-003
9.247969e-003
9.254901e-003
9.262999e-003
9.272271e-003
9.282685e-003
9.294164e-003
9.306574e-003
9.319719e-003
9.333342e-003
9.347132e-003
9.360744e-003
9.373823e-003
9.386034e-003
9.397095e-003
9.406802e-003
9.415043e-003
9.421805e-003
9.427159e-003
9.431248e-003
9.434255e-003
9.436381e-003
9.437823e-003
9.438757e-003
9.439332e-003
9.439665e-003
9.439843e-003
9.439928e-003
9.439961e-003
9.439967e-003
9.439961e-003
9.439952e-003
9.439942e-003
9.439935e-003
9.439931e-003
9.439928e-003
9.439931e-003
9.439933e-003
9.439937e-003
9.439943e-003
9.439951e-003
9.439962e-003
9.439975e-003
9.439988e-003
9.439999e-003
9.440001e-003
9.439983e-003
9.439929e-003
9.439812e-003
9.439598e-003
9.439240e-003
9.438677e-003
9.437840e-003
9.436649e-003
9.435022e-003
9.432878e-003
9.430145e-003
9.426771e-003
9.422726e-003
9.418008e-003
9.412643e-003
9.406685e-003
9.400209e-003
9.393307e-003
9.386079e-003
9.378625e-003
9.371042e-003
9.363414e-003
9.355814e-003
9.348301e-003
9.340917e-003
9.333691e-003
9.326639e-003
9.319770e-003
9.313084e-003
9.306577e-003
9.300245e-003
9.294081e-003
9.288084e-003
9.282254e-003
9.276596e-003
9.271120e-003
9.265840e-003
9.260773e-003
9.255944e-003
9.251377e-003
9.247103e-003
9.243153e-003
9.239565e-003
9.236377e-003
9.233631e-003
9.231373e-003
9.229653e-003
9.228522e-003
9.228037e-003
9.228258e-003
9.229245e-003
9.231065e-003
9.233782e-003
9.237463e-003
9.242173e-003
9.247969e-003
9.254901e-003
9.262999e-003
9.272271e-003
9.282685e-003
9.294164e-003
9.306574e-003
9.319719e-003
9.333342e-003
9.347132e-003
9.360744e-003
9.373823e-003
9.386034e-003
9.397095e-003
9.406802e-003
9.415043e-003
9.421805e-003
9.427159e-003
9.431248e-003
9.434255e-003
9.436381e-003
9.437823e-003
9.438757e-003
9.439332e-003
9.439665e-003
9.439843e-003
9.439928e-003
9.439961e-003
9.439967e-003
9.439961e-003
9.439952e-003
9.439942e-003
9.439935e-003
9.439931e-003
9.439928e-003
9.439935e-003
9.439937e-003
9.439941e-003
9.439947e-003
9.439956e-003
9.439967e-003
9.439978e-003
9.439986e-003
9.439985e-003
9.439963e-003
9.439902e-003
9.439772e-003
9.439534e-003
9.439129e-003
9.438484e-003
9.437508e-003
9.436095e-003
9.434129e-003
9.431496e-003
9.428091e-003
9.423832e-003
9.418672e-003
9.412607e-003
9.405680e-003
9.397976e-003
9.389620e-003
9.380761e-003
9.371562e-003
9.362185e-003
9.352783e-003
9.343488e-003
9.334412e-003
9.325637e-003
9.317225e-003
9.309212e-003
9.301616e-003
9.294443e-003
9.287689e-003
9.281345e-003
9.275401e-003
9.269849e-003
9.264682e-003
9.259896e-003
9.255489e-003
9.251461e-003
9.247812e-003
9.244541e-003
9.241647e-003
9.239127e-003
9.236976e-003
9.235187e-003
9.233753e-003
9.232664e-003
9.231909e-003
9.231473e-003
9.231344e-003
9.231504e-003
9.231936e-003
9.232622e-003
9.233550e-003
9.234709e-003
9.236105e-003
9.237757e-003
9.239712e-003
9.242048e-003
9.244878e-003
9.248357e-003
9.252671e-003
9.258029e-003
9.264638e-003
9.272677e-003
9.282261e-003
9.293407e-003
9.306007e-003
9.319817e-003
9.334460e-003
9.349453e-003
9.364257e-003
9.378338e-003
9.391227e-003
9.402573e-003
9.412176e-003
9.419987e-003
9.426094e-003
9.430681e-003
9.433990e-003
9.436281e-003
9.437800e-003
9.438762e-003
9.439340e-003
9.439668e-003
9.439840e-003
9.439920e-003
9.439951e-003
9.439957e-003
9.439952e-003
9.439945e-003
9.439938e-003
9.439933e-003
9.439930e-003
9.439941e-003
9.439944e-003
9.439949e-003
9.439956e-003
9.439965e-003
9.439974e-003
9.439979e-003
9.439972e-003
9.439937e-003
9.439852e-003
9.439677e-003
9.439357e-003
9.438810e-003
9.437929e-003
9.436576e-003
9.434587e-003
9.431778e-003
9.427961e-003
9.422963e-003
9.416651e-003
9.408958e-003
9.399905e-003
9.389607e-003
9.378275e-003
9.366197e-003
9.353713e-003
9.341179e-003
9.328940e-003
9.317302e-003
9.306516e-003
9.296768e-003
9.288179e-003
9.280815e-003
9.274689e-003
9.269782e-003
9.266051e-003
9.263443e-003
9.261909e-003
9.261409e-003
9.261916e-003
9.263416e-003
9.265901e-003
9.269368e-003
9.273806e-003
9.279195e-003
9.285495e-003
9.292648e-003
9.300571e-003
9.309160e-003
9.318288e-003
9.327808e-003
9.337555e-003
9.347344e-003
9.356973e-003
9.366218e-003
9.374836e-003
9.382563e-003
9.389115e-003
9.394194e-003
9.397498e-003
9.398736e-003
9.397653e-003
9.394059e-003
9.387865e-003
9.379126e-003
9.368076e-003
9.355155e-003
9.341027e-003
9.326558e-003
9.312774e-003
9.300783e-003
9.291663e-003
9.286337e-003
9.285450e-003
9.289265e-003
9.297601e-003
9.309841e-003
9.325000e-003
9.341869e-003
9.359180e-003
9.375787e-003
9.390800e-003
9.403655e-003
9.414120e-003
9.422245e-003
9.428273e-003
9.432553e-003
9.435461e-003
9.437353e-003
9.438527e-003
9.439221e-003
9.439608e-003
9.439809e-003
9.439903e-003
9.439940e-003
9.439949e-003
9.439947e-003
9.439942e-003
9.439937e-003
9.439934e-003
9.439952e-003
9.439955e-003
9.439961e-003
9.439969e-003
9.439977e-003
9.439979e-003
9.439966e-003
9.439919e-003
9.439808e-003
9.439582e-003
9.439164e-003
9.438439e-003
9.437251e-003
9.435393e-003
9.432610e-003
9.428608e-003
9.423079e-003
9.415739e-003
9.406383e-003
9.394940e-003
9.381531e-003
9.366501e-003
9.350419e-003
9.334039e-003
9.318236e-003
9.303908e-003
9.291893e-003
9.282892e-003
9.277421e-003
9.275795e-003
9.278140e-003
9.284416e-003
9.294460e-003
9.308023e-003
9.324817e-003
9.344555e-003
9.366981e-003
9.391897e-003
9.419173e-003
9.448745e-003
9.480597e-003
9.514737e-003
9.551172e-003
9.589874e-003
9.630757e-003
9.673661e-003
9.718340e-003
9.764458e-003
9.811594e-003
9.859246e-003
9.906839e-003
9.953732e-003
9.999217e-003
1.004252e-002
1.008281e-002
1.011915e-002
1.015055e-002
1.017594e-002
1.019417e-002
1.020407e-002
1.020445e-002
1.019423e-002
1.017249e-002
1.013858e-002
1.009232e-002
1.003403e-002
9.964755e-003
9.886284e-003
9.801182e-003
9.712715e-003
9.624672e-003
9.541083e-003
9.465860e-003
9.402385e-003
9.353120e-003
9.319292e-003
9.300735e-003
9.295933e-003
9.302289e-003
9.316561e-003
9.335375e-003
9.355707e-003
9.375210e-003
9.392363e-003
9.406430e-003
9.417297e-003
9.425256e-003
9.430808e-003
9.434505e-003
9.436857e-003
9.438285e-003
9.439109e-003
9.439559e-003
9.439788e-003
9.439893e-003
9.439935e-003
9.439947e-003
9.439946e-003
9.439943e-003
9.439940e-003
9.439967e-003
9.439970e-003
9.439976e-003
9.439983e-003
9.439983e-003
9.439967e-003
9.439911e-003
9.439779e-003
9.439506e-003
9.438993e-003
9.438085e-003
9.436566e-003
9.434139e-003
9.430425e-003
9.424977e-003
9.417316e-003
9.407003e-003
9.393753e-003
9.377567e-003
9.358877e-003
9.338651e-003
9.318422e-003
9.300215e-003
9.286367e-003
9.279279e-003
9.281146e-003
9.293730e-003
9.318203e-003
9.355100e-003
9.404353e-003
9.465400e-003
9.537314e-003
9.618953e-003
9.709090e-003
9.806534e-003
9.910230e-003
1.001933e-002
1.013324e-002
1.025161e-002
1.037432e-002
1.050140e-002
1.063293e-002
1.076898e-002
1.090949e-002
1.105422e-002
1.120269e-002
1.135416e-002
1.150764e-002
1.166188e-002
1.181545e-002
1.196667e-002
1.211374e-002
1.225464e-002
1.238723e-002
1.250915e-002
1.261783e-002
1.271049e-002
1.278411e-002
1.283547e-002
1.286116e-002
1.285776e-002
1.282193e-002
1.275071e-002
1.264175e-002
1.249372e-002
1.230667e-002
1.208241e-002
1.182481e-002
1.153998e-002
1.123621e-002
1.092373e-002
1.061408e-002
1.031930e-002
1.005080e-002
9.818266e-003
9.628472e-003
9.484518e-003
9.385495e-003
9.326810e-003
9.301098e-003
9.299561e-003
9.313383e-003
9.334916e-003
9.358398e-003
9.380129e-003
9.398236e-003
9.412187e-003
9.422274e-003
9.429178e-003
9.433673e-003
9.436464e-003
9.438116e-003
9.439045e-003
9.439538e-003
9.439783e-003
9.439893e-003
9.439936e-003
9.439948e-003
9.439949e-003
9.439948e-003
9.439986e-003
9.439989e-003
9.439993e-003
9.439992e-003
9.439974e-003
9.439913e-003
9.439766e-003
9.439459e-003
9.438866e-003
9.437796e-003
9.435962e-003
9.432962e-003
9.428269e-003
9.421235e-003
9.411158e-003
9.397407e-003
9.379636e-003
9.358094e-003
9.333980e-003
9.309755e-003
9.289301e-003
9.277824e-003
9.281441e-003
9.306526e-003
9.358940e-003
9.443321e-003
9.562577e-003
9.717688e-003
9.907790e-003
1.013050e-002
1.038234e-002
1.065926e-002
1.095700e-002
1.127147e-002
1.159902e-002
1.193664e-002
1.228208e-002
1.263388e-002
1.299131e-002
1.335427e-002
1.372300e-002
1.409791e-002
1.447929e-002
1.486709e-002
1.526075e-002
1.565914e-002
1.606045e-002
1.646230e-002
1.686170e-002
1.725523e-002
1.763902e-002
1.800885e-002
1.836015e-002
1.868803e-002
1.898713e-002
1.925170e-002
1.947540e-002
1.965135e-002
1.977211e-002
1.982975e-002
1.981602e-002
1.972270e-002
1.954203e-002
1.926732e-002
1.889373e-002
1.841916e-002
1.784518e-002
1.717791e-002
1.642874e-002
1.561467e-002
1.475815e-002
1.388628e-002
1.302928e-002
1.221820e-002
1.148206e-002
1.084466e-002
1.032178e-002
9.919225e-003
9.632408e-003
9.447725e-003
9.345384e-003
9.303066e-003
9.299462e-003
9.316887e-003
9.342533e-003
9.368437e-003
9.390575e-003
9.407620e-003
9.419777e-003
9.427930e-003
9.433113e-003
9.436248e-003
9.438053e-003
9.439040e-003
9.439550e-003
9.439794e-003
9.439901e-003
9.439942e-003
9.439954e-003
9.439956e-003
9.440009e-003
9.440010e-003
9.440007e-003
9.439987e-003
9.439924e-003
9.439772e-003
9.439445e-003
9.438800e-003
9.437608e-003
9.435515e-003
9.432009e-003
9.426389e-003
9.417780e-003
9.405203e-003
9.387795e-003
9.365203e-003
9.338219e-003
9.309596e-003
9.284894e-003
9.273076e-003
9.286516e-003
9.340214e-003
9.450232e-003
9.631643e-003
9.896480e-003
1.025215e-002
1.070066e-002
1.123875e-002
1.185869e-002
1.254970e-002
1.329926e-002
1.409453e-002
1.492330e-002
1.577471e-002
1.663976e-002
1.751151e-002
1.838518e-002
1.925804e-002
2.012917e-002
2.099896e-002
2.186863e-002
2.273957e-002
2.361285e-002
2.448869e-002
2.536621e-002
2.624322e-002
2.711623e-002
2.798053e-002
2.883038e-002
2.965918e-002
3.045966e-002
3.122397e-002
3.194372e-002
3.260997e-002
3.321308e-002
3.374256e-002
3.418692e-002
3.453352e-002
3.476844e-002
3.487658e-002
3.484181e-002
3.464740e-002
3.427664e-002
3.371384e-002
3.294559e-002
3.196238e-002
3.076046e-002
2.934390e-002
2.772655e-002
2.593382e-002
2.400364e-002
2.198657e-002
1.994424e-002
1.794599e-002
1.606338e-002
1.436298e-002
1.289836e-002
1.170299e-002
1.078591e-002
1.013163e-002
9.704501e-003
9.456563e-003
9.336597e-003
9.298057e-003
9.304119e-003
9.329338e-003
9.358560e-003
9.384354e-003
9.404187e-003
9.418116e-003
9.427251e-003
9.432912e-003
9.436242e-003
9.438106e-003
9.439095e-003
9.439589e-003
9.439819e-003
9.439916e-003
9.439952e-003
9.439963e-003
9.440033e-003
9.440027e-003
9.440006e-003
9.439945e-003
9.439795e-003
9.439467e-003
9.438804e-003
9.437548e-003
9.435287e-003
9.431405e-003
9.425029e-003
9.415029e-003
9.400114e-003
9.379146e-003
9.351815e-003
9.319808e-003
9.288520e-003
9.269062e-003
9.280017e-003
9.348107e-003
9.507009e-003
9.794061e-003
1.024530e-002
1.089000e-002
1.174609e-002
1.281760e-002
1.409454e-002
1.555507e-002
1.716902e-002
1.890206e-002
2.071940e-002
2.258866e-002
2.448176e-002
2.637579e-002
2.825338e-002
3.010253e-002
3.191622e-002
3.369174e-002
3.542982e-002
3.713355e-002
3.880718e-002
4.045500e-002
4.208034e-002
4.368482e-002
4.526792e-002
4.682682e-002
4.835655e-002
4.985025e-002
5.129957e-002
5.269505e-002
5.402645e-002
5.528294e-002
5.645315e-002
5.752505e-002
5.848574e-002
5.932114e-002
6.001562e-002
6.055165e-002
6.090950e-002
6.106703e-002
6.099965e-002
6.068050e-002
6.008096e-002
5.917149e-002
5.792298e-002
5.630879e-002
5.430731e-002
5.190542e-002
4.910256e-002
4.591533e-002
4.238226e-002
3.856787e-002
3.456503e-002
3.049396e-002
2.649617e-002
2.272258e-002
1.931628e-002
1.639269e-002
1.402208e-002
1.221960e-002
1.094631e-002
1.012140e-002
9.641493e-003
9.401255e-003
9.309421e-003
9.297307e-003
9.319830e-003
9.351475e-003
9.380300e-003
9.402339e-003
9.417526e-003
9.427242e-003
9.433099e-003
9.436447e-003
9.438264e-003
9.439198e-003
9.439650e-003
9.439853e-003
9.439936e-003
9.439964e-003
9.440050e-003
9.440031e-003
9.439974e-003
9.439833e-003
9.439520e-003
9.438875e-003
9.437621e-003
9.435308e-003
9.431234e-003
9.424372e-003
9.413343e-003
9.396516e-003
9.372428e-003
9.340792e-003
9.304453e-003
9.272545e-003
9.264690e-003
9.315325e-003
9.476408e-003
9.816435e-003
1.041437e-002
1.134881e-002
1.268467e-002
1.446108e-002
1.668379e-002
1.932416e-002
2.232443e-002
2.560720e-002
2.908643e-002
3.267744e-002
3.630433e-002
3.990424e-002
4.342891e-002
4.684420e-002
5.012867e-002
5.327162e-002
5.627103e-002
5.913149e-002
6.186212e-002
6.447455e-002
6.698098e-002
6.939257e-002
7.171824e-002
7.396386e-002
7.613200e-002
7.822206e-002
8.023072e-002
8.215254e-002
8.398062e-002
8.570718e-002
8.732397e-002
8.882250e-002
9.019404e-002
9.142939e-002
9.251862e-002
9.345057e-002
9.421231e-002
9.478858e-002
9.516118e-002
9.530838e-002
9.520429e-002
9.481832e-002
9.411470e-002
9.305220e-002
9.158422e-002
8.965940e-002
8.722324e-002
8.422106e-002
8.060289e-002
7.633085e-002
7.138935e-002
6.579791e-002
5.962511e-002
5.300081e-002
4.612176e-002
3.924528e-002
3.266659e-002
2.667998e-002
2.153101e-002
1.737295e-002
1.424242e-002
1.206302e-002
1.067527e-002
9.880829e-003
9.485405e-003
9.328417e-003
9.295129e-003
9.314278e-003
9.347792e-003
9.378882e-003
9.402322e-003
9.418090e-003
9.427902e-003
9.433644e-003
9.436828e-003
9.438502e-003
9.439335e-003
9.439725e-003
9.439892e-003
9.439952e-003
9.440051e-003
9.440006e-003
9.439882e-003
9.439598e-003
9.439001e-003
9.437813e-003
9.435568e-003
9.431512e-003
9.424505e-003
9.412948e-003
9.394875e-003
9.368428e-003
9.333213e-003
9.293176e-003
9.261771e-003
9.269627e-003
9.373649e-003
9.664491e-003
1.026777e-002
1.133462e-002
1.302032e-002
1.545460e-002
1.871198e-002
2.279190e-002
2.761509e-002
3.303697e-002
3.887270e-002
4.492581e-002
5.101298e-002
5.698078e-002
6.271336e-002
6.813272e-002
7.319430e-002
7.788044e-002
8.219348e-002
8.614952e-002
8.977339e-002
9.309447e-002
9.614361e-002
9.895066e-002
1.015427e-001
1.039431e-001
1.061708e-001
1.082405e-001
1.101630e-001
1.119458e-001
1.135943e-001
1.151120e-001
1.165018e-001
1.177659e-001
1.189065e-001
1.199255e-001
1.208247e-001
1.216055e-001
1.222687e-001
1.228138e-001
1.232391e-001
1.235408e-001
1.237125e-001
1.237446e-001
1.236231e-001
1.233284e-001
1.228341e-001
1.221047e-001
1.210933e-001
1.197393e-001
1.179655e-001
1.156760e-001
1.127557e-001
1.090734e-001
1.044897e-001
9.887502e-002
9.213644e-002
8.425496e-002
7.532654e-002
6.559584e-002
5.546562e-002
4.546472e-002
3.616847e-002
2.808710e-002
2.155871e-002
1.668827e-002
1.335540e-002
1.128207e-002
1.012648e-002
9.565877e-003
9.346062e-003
9.295134e-003
9.312511e-003
9.347784e-003
9.380259e-003
9.404133e-003
9.419724e-003
9.429130e-003
9.434465e-003
9.437329e-003
9.438787e-003
9.439487e-003
9.439799e-003
9.439914e-003
9.440016e-003
9.439925e-003
9.439685e-003
9.439160e-003
9.438091e-003
9.436021e-003
9.432188e-003
9.425392e-003
9.413885e-003
9.395398e-003
9.367628e-003
9.329812e-003
9.286487e-003
9.254911e-003
9.277340e-003
9.437527e-003
9.877181e-003
1.080375e-002
1.247888e-002
1.518054e-002
1.914246e-002
2.448733e-002
3.117866e-002
3.901168e-002
4.764823e-002
5.668183e-002
6.570941e-002
7.438825e-002
8.246733e-002
8.979345e-002
9.629959e-002
1.019848e-001
1.068933e-001
1.110952e-001
1.146727e-001
1.177098e-001
1.202850e-001
1.224688e-001
1.243217e-001
1.258945e-001
1.272294e-001
1.283611e-001
1.293182e-001
1.301249e-001
1.308016e-001
1.313659e-001
1.318336e-001
1.322184e-001
1.325324e-001
1.327863e-001
1.329891e-001
1.331488e-001
1.332717e-001
1.333634e-001
1.334281e-001
1.334691e-001
1.334889e-001
1.334888e-001
1.334688e-001
1.334278e-001
1.333627e-001
1.332680e-001
1.331351e-001
1.329510e-001
1.326961e-001
1.323418e-001
1.318458e-001
1.311453e-001
1.301476e-001
1.287175e-001
1.266644e-001
1.237339e-001
1.196128e-001
1.139609e-001
1.064782e-001
9.701040e-002
8.567141e-002
7.293235e-002
5.961412e-002
4.674670e-002
3.532394e-002
2.605008e-002
1.919165e-002
1.459130e-002
1.181053e-002
1.031410e-002
9.616173e-003
9.353701e-003
9.295386e-003
9.314374e-003
9.351438e-003
9.384266e-003
9.407528e-003
9.422196e-003
9.430752e-003
9.435447e-003
9.437884e-003
9.439081e-003
9.439626e-003
9.439832e-003
9.439919e-003
9.439752e-003
9.439322e-003
9.438410e-003
9.436596e-003
9.433153e-003
9.426891e-003
9.415999e-003
9.397994e-003
9.370120e-003
9.330951e-003
9.284688e-003
9.250561e-003
9.280029e-003
9.482770e-003
1.005708e-002
1.131143e-002
1.365610e-002
1.754448e-002
2.336072e-002
3.128148e-002
4.116815e-002
5.254665e-002
6.469582e-002
7.681036e-002
8.817109e-002
9.826236e-002
1.068128e-001
1.137704e-001
1.192409e-001
1.234192e-001
1.265336e-001
1.288084e-001
1.304430e-001
1.316024e-001
1.324159e-001
1.329801e-001
1.333655e-001
1.336227e-001
1.337884e-001
1.338896e-001
1.339470e-001
1.339767e-001
1.339909e-001
1.339986e-001
1.340060e-001
1.340164e-001
1.340311e-001
1.340494e-001
1.340701e-001
1.340911e-001
1.341112e-001
1.341296e-001
1.341464e-001
1.341627e-001
1.341807e-001
1.342029e-001
1.342322e-001
1.342716e-001
1.343232e-001
1.343879e-001
1.344644e-001
1.345481e-001
1.346304e-001
1.346971e-001
1.347285e-001
1.346996e-001
1.345821e-001
1.343457e-001
1.339588e-001
1.333794e-001
1.325327e-001
1.312656e-001
1.292848e-001
1.260982e-001
1.210189e-001
1.133105e-001
1.025003e-001
8.874296e-002
7.300567e-002
5.689351e-002
4.215055e-002
3.009195e-002
2.126902e-002
1.549462e-002
1.212439e-002
1.038765e-002
9.618325e-003
9.347602e-003
9.295787e-003
9.319956e-003
9.358469e-003
9.390435e-003
9.412064e-003
9.425179e-003
9.432558e-003
9.436468e-003
9.438423e-003
9.439331e-003
9.439681e-003
9.439722e-003
9.439435e-003
9.438712e-003
9.437205e-003
9.434265e-003
9.428780e-003
9.418977e-003
9.402289e-003
9.375587e-003
9.336574e-003
9.288096e-003
9.248579e-003
9.273176e-003
9.489481e-003
1.014560e-002
1.165448e-002
1.460006e-002
1.966065e-002
2.742368e-002
3.812515e-002
5.142513e-002
6.636281e-002
8.156410e-002
9.562729e-002
1.075025e-001
1.166986e-001
1.232669e-001
1.276261e-001
1.303425e-001
1.319552e-001
1.328873e-001
1.334295e-001
1.337603e-001
1.339766e-001
1.341219e-001
1.342093e-001
1.342383e-001
1.342058e-001
1.341101e-001
1.339528e-001
1.337377e-001
1.334690e-001
1.331511e-001
1.327872e-001
1.323804e-001
1.319333e-001
1.314490e-001
1.309318e-001
1.303874e-001
1.298233e-001
1.292487e-001
1.286747e-001
1.281137e-001
1.275794e-001
1.270867e-001
1.266516e-001
1.262909e-001
1.260227e-001
1.258659e-001
1.258402e-001
1.259658e-001
1.262619e-001
1.267459e-001
1.274304e-001
1.283198e-001
1.294053e-001
1.306587e-001
1.320242e-001
1.334106e-001
1.346840e-001
1.356688e-001
1.361669e-001
1.360071e-001
1.351179e-001
1.335496e-001
1.313188e-001
1.280544e-001
1.227283e-001
1.139280e-001
1.007670e-001
8.380552e-002
6.512823e-002
4.744683e-002
3.291890e-002
2.246621e-002
1.584020e-002
1.213564e-002
1.032405e-002
9.571712e-003
9.331007e-003
9.298118e-003
9.329397e-003
9.368269e-003
9.398056e-003
9.417190e-003
9.428315e-003
9.434342e-003
9.437412e-003
9.438861e-003
9.439426e-003
9.439378e-003
9.438913e-003
9.437754e-003
9.435375e-003
9.430805e-003
9.422414e-003
9.407701e-003
9.383334e-003
9.346155e-003
9.296922e-003
9.250476e-003
9.258537e-003
9.452615e-003
1.010978e-002
1.172708e-002
1.505910e-002
2.104128e-002
3.052545e-002
4.384104e-002
6.036282e-002
7.839998e-002
9.563132e-002
1.099554e-001
1.202753e-001
1.267414e-001
1.303574e-001
1.323062e-001
1.334542e-001
1.342146e-001
1.346724e-001
1.347833e-001
1.345103e-001
1.338672e-001
1.329059e-001
1.316923e-001
1.302901e-001
1.287538e-001
1.271266e-001
1.254414e-001
1.237220e-001
1.219844e-001
1.202394e-001
1.184942e-001
1.167542e-001
1.150249e-001
1.133125e-001
1.116247e-001
1.099710e-001
1.083621e-001
1.068100e-001
1.053274e-001
1.039277e-001
1.026245e-001
1.014321e-001
1.003654e-001
9.944070e-002
9.867588e-002
9.809136e-002
9.771067e-002
9.756109e-002
9.767429e-002
9.808674e-002
9.883986e-002
9.997964e-002
1.015555e-001
1.036177e-001
1.062125e-001
1.093736e-001
1.131083e-001
1.173743e-001
1.220456e-001
1.268679e-001
1.314150e-001
1.350817e-001
1.371829e-001
1.372302e-001
1.353060e-001
1.320300e-001
1.275578e-001
1.204610e-001
1.085014e-001
9.107423e-002
7.043202e-002
5.036251e-002
3.397424e-002
2.250722e-002
1.553836e-002
1.184154e-002
1.014380e-002
9.493321e-003
9.312296e-003
9.304793e-003
9.342450e-003
9.379898e-003
9.406288e-003
9.422346e-003
9.431283e-003
9.435923e-003
9.438148e-003
9.439024e-003
9.438831e-003
9.438109e-003
9.436330e-003
9.432725e-003
9.425896e-003
9.413560e-003
9.392414e-003
9.358676e-003
9.310868e-003
9.258449e-003
9.243363e-003
9.385155e-003
9.959198e-003
1.150196e-002
1.489663e-002
2.133130e-002
3.198547e-002
4.738480e-002
6.664516e-002
8.718491e-002
1.054968e-001
1.188531e-001
1.267646e-001
1.308368e-001
1.331219e-001
1.346599e-001
1.354019e-001
1.349906e-001
1.333181e-001
1.305751e-001
1.270870e-001
1.231768e-001
1.191014e-001
1.150394e-001
1.111011e-001
1.073463e-001
1.038009e-001
1.004685e-001
9.734006e-002
9.439925e-002
9.162718e-002
8.900521e-002
8.651702e-002
8.414980e-002
8.189470e-002
7.974673e-002
7.770428e-002
7.576841e-002
7.394207e-002
7.222943e-002
7.063535e-002
6.916509e-002
6.782430e-002
6.661917e-002
6.555684e-002
6.464592e-002
6.389713e-002
6.332410e-002
6.294416e-002
6.277932e-002
6.285735e-002
6.321306e-002
6.388971e-002
6.494072e-002
6.643152e-002
6.844144e-002
7.106544e-002
7.441462e-002
7.861411e-002
8.379478e-002
9.007252e-002
9.750522e-002
1.060141e-001
1.152592e-001
1.244829e-001
1.324059e-001
1.374044e-001
1.382769e-001
1.353955e-001
1.305127e-001
1.238639e-001
1.126175e-001
9.468243e-002
7.231763e-002
5.045859e-002
3.305072e-002
2.138424e-002
1.466927e-002
1.132562e-002
9.901346e-003
9.409312e-003
9.300489e-003
9.317227e-003
9.358180e-003
9.392191e-003
9.414310e-003
9.427057e-003
9.433821e-003
9.437115e-003
9.438426e-003
9.438018e-003
9.436944e-003
9.434319e-003
9.429059e-003
9.419230e-003
9.401797e-003
9.372750e-003
9.328811e-003
9.273774e-003
9.236319e-003
9.311537e-003
9.741944e-003
1.104467e-002
1.415113e-002
2.044111e-002
3.145561e-002
4.809399e-002
6.944664e-002
9.210588e-002
1.112223e-001
1.235101e-001
1.296946e-001
1.330091e-001
1.352609e-001
1.357994e-001
1.336225e-001
1.287808e-001
1.221159e-001
1.146008e-001
1.069851e-001
9.972838e-002
9.305969e-002
8.705768e-002
8.171527e-002
7.698246e-002
7.279177e-002
6.907199e-002
6.575506e-002
6.277924e-002
6.009048e-002
5.764285e-002
5.539856e-002
5.332751e-002
5.140669e-002
4.961919e-002
4.795313e-002
4.640061e-002
4.495660e-002
4.361804e-002
4.238315e-002
4.125093e-002
4.022092e-002
3.929314e-002
3.846822e-002
3.774767e-002
3.713422e-002
3.663232e-002
3.624861e-002
3.599256e-002
3.587725e-002
3.592025e-002
3.614486e-002
3.658167e-002
3.727059e-002
3.826366e-002
3.962874e-002
4.145446e-002
4.385655e-002
4.698569e-002
5.103580e-002
5.624984e-002
6.291556e-002
7.133613e-002
8.174837e-002
9.414942e-002
1.079987e-001
1.218358e-001
1.330904e-001
1.387814e-001
1.377417e-001
1.324336e-001
1.253767e-001
1.139205e-001
9.478370e-002
7.066036e-002
4.772655e-002
3.033554e-002
1.935938e-002
1.345151e-002
1.072215e-002
9.660951e-003
9.343213e-003
9.301020e-003
9.334914e-003
9.375048e-003
9.403979e-003
9.421451e-003
9.430968e-003
9.435679e-003
9.437575e-003
9.436877e-003
9.435338e-003
9.431604e-003
9.424201e-003
9.410563e-003
9.386882e-003
9.348869e-003
9.295716e-003
9.242903e-003
9.255617e-003
9.521890e-003
1.048463e-002
1.302306e-002
1.858594e-002
2.902777e-002
4.579902e-002
6.841154e-002
9.306355e-002
1.135215e-001
1.255792e-001
1.311246e-001
1.345432e-001
1.360983e-001
1.333661e-001
1.258038e-001
1.150652e-001
1.032380e-001
9.181562e-002
8.156432e-002
7.273395e-002
6.529045e-002
5.907579e-002
5.389724e-002
4.956994e-002
4.593307e-002
4.285322e-002
4.022214e-002
3.795281e-002
3.597555e-002
3.423479e-002
3.268654e-002
3.129636e-002
3.003775e-002
2.889071e-002
2.784044e-002
2.687618e-002
2.599023e-002
2.517703e-002
2.443251e-002
2.375356e-002
2.313771e-002
2.258296e-002
2.208769e-002
2.165075e-002
2.127159e-002
2.095041e-002
2.068843e-002
2.048814e-002
2.035365e-002
2.029112e-002
2.030933e-002
2.042046e-002
2.064112e-002
2.099388e-002
2.150943e-002
2.222969e-002
2.321241e-002
2.453797e-002
2.631922e-002
2.871567e-002
3.195250e-002
3.634337e-002
4.231087e-002
5.038675e-002
6.115191e-002
7.504361e-002
9.193476e-002
1.104520e-001
1.273192e-001
1.377874e-001
1.388034e-001
1.331612e-001
1.254064e-001
1.127387e-001
9.139812e-002
6.558484e-002
4.258466e-002
2.636705e-002
1.687818e-002
1.215949e-002
1.016338e-002
9.471952e-003
9.307458e-003
9.314063e-003
9.355665e-003
9.391325e-003
9.414306e-003
9.427236e-003
9.433761e-003
9.436415e-003
9.435354e-003
9.433224e-003
9.428092e-003
9.418024e-003
9.399764e-003
9.368859e-003
9.321652e-003
9.263201e-003
9.230724e-003
9.351164e-003
9.959457e-003
1.179327e-002
1.621215e-002
2.522210e-002
4.086455e-002
6.356743e-002
8.997940e-002
1.128177e-001
1.260247e-001
1.316501e-001
1.352015e-001
1.353868e-001
1.284696e-001
1.152094e-001
9.919958e-002
8.357455e-002
6.997519e-002
5.886519e-002
5.008476e-002
4.324409e-002
3.792752e-002
3.377493e-002
3.050102e-002
2.788946e-002
2.577934e-002
2.405174e-002
2.261844e-002
2.141353e-002
2.038730e-002
1.950200e-002
1.872889e-002
1.804618e-002
1.743741e-002
1.689033e-002
1.639589e-002
1.594745e-002
1.554014e-002
1.517030e-002
1.483516e-002
1.453247e-002
1.426037e-002
1.401730e-002
1.380191e-002
1.361311e-002
1.345014e-002
1.331258e-002
1.320051e-002
1.311460e-002
1.305625e-002
1.302781e-002
1.303282e-002
1.307643e-002
1.316590e-002
1.331146e-002
1.352750e-002
1.383442e-002
1.426158e-002
1.485187e-002
1.566915e-002
1.680998e-002
1.842233e-002
2.073394e-002
2.409266e-002
2.901596e-002
3.623115e-002
4.665250e-002
6.117998e-002
8.014225e-002
1.022596e-001
1.234648e-001
1.371806e-001
1.388905e-001
1.325548e-001
1.239529e-001
1.088040e-001
8.439589e-002
5.755755e-002
3.585757e-002
2.189898e-002
1.442370e-002
1.102882e-002
9.736519e-003
9.355550e-003
9.301849e-003
9.335698e-003
9.376619e-003
9.405562e-003
9.422534e-003
9.431286e-003
9.434890e-003
9.433411e-003
9.430560e-003
9.423733e-003
9.410484e-003
9.386871e-003
9.348136e-003
9.292795e-003
9.236868e-003
9.253332e-003
9.563807e-003
1.071468e-002
1.383548e-002
2.084231e-002
3.417460e-002
5.542135e-002
8.269468e-002
1.087834e-001
1.250257e-001
1.314016e-001
1.350239e-001
1.344427e-001
1.243010e-001
1.063487e-001
8.615757e-002
6.790498e-002
5.327082e-002
4.229409e-002
3.433296e-002
2.862781e-002
2.453044e-002
2.155519e-002
1.935984e-002
1.770991e-002
1.644602e-002
1.545956e-002
1.467573e-002
1.404221e-002
1.352184e-002
1.308772e-002
1.272017e-002
1.240461e-002
1.213026e-002
1.188911e-002
1.167528e-002
1.148443e-002
1.131340e-002
1.115980e-002
1.102186e-002
1.089817e-002
1.078757e-002
1.068910e-002
1.060190e-002
1.052524e-002
1.045849e-002
1.040116e-002
1.035287e-002
1.031347e-002
1.028301e-002
1.026180e-002
1.025051e-002
1.025026e-002
1.026275e-002
1.029051e-002
1.033723e-002
1.040830e-002
1.051169e-002
1.065933e-002
1.086956e-002
1.117123e-002
1.161089e-002
1.226541e-002
1.326384e-002
1.482429e-002
1.731245e-002
2.132392e-002
2.777172e-002
3.790557e-002
5.308512e-002
7.401531e-002
9.922862e-002
1.233634e-001
1.378318e-001
1.380064e-001
1.306903e-001
1.206535e-001
1.013657e-001