# vtk DataFile Version 3.0
vtk output
ASCII
DATASET STRUCTURED_POINTS
DIMENSIONS 100 100 1
SPACING 1 1 1
ORIGIN 0 0 0
POINT_DATA 10000
SCALARS SFBox_profile double
LOOKUP_TABLE default 
9.439939e-003
9.439941e-003
9.439947e-003
9.439954e-003
9.439964e-003
9.439977e-003
9.439991e-003
9.440002e-003
9.440001e-003
9.439973e-003
9.439893e-003
9.439724e-003
9.439411e-003
9.438875e-003
9.438016e-003
9.436707e-003
9.434799e-003
9.432132e-003
9.428542e-003
9.423878e-003
9.418025e-003
9.410912e-003
9.402532e-003
9.392946e-003
9.382277e-003
9.370705e-003
9.358446e-003
9.345734e-003
9.332803e-003
9.319870e-003
9.307123e-003
9.294714e-003
9.282757e-003
9.271330e-003
9.260473e-003
9.250201e-003
9.240509e-003
9.231377e-003
9.222775e-003
9.214674e-003
9.207045e-003
9.199865e-003
9.193115e-003
9.186784e-003
9.180867e-003
9.175365e-003
9.170280e-003
9.165621e-003
9.161396e-003
9.157613e-003
9.154280e-003
9.151404e-003
9.148988e-003
9.147035e-003
9.145546e-003
9.144517e-003
9.143945e-003
9.143826e-003
9.144154e-003
9.144928e-003
9.146152e-003
9.147841e-003
9.150026e-003
9.152764e-003
9.156140e-003
9.160280e-003
9.165344e-003
9.171534e-003
9.179072e-003
9.188190e-003
9.199097e-003
9.211941e-003
9.226774e-003
9.243518e-003
9.261937e-003
9.281634e-003
9.302066e-003
9.322588e-003
9.342510e-003
9.361181e-003
9.378053e-003
9.392742e-003
9.405055e-003
9.414991e-003
9.422705e-003
9.428464e-003
9.432597e-003
9.435445e-003
9.437324e-003
9.438510e-003
9.439219e-003
9.439619e-003
9.439827e-003
9.439924e-003
9.439960e-003
9.439967e-003
9.439961e-003
9.439953e-003
9.439946e-003
9.439942e-003
9.439939e-003
9.439941e-003
9.439947e-003
9.439954e-003
9.439964e-003
9.439977e-003
9.439991e-003
9.440002e-003
9.440001e-003
9.439973e-003
9.439893e-003
9.439724e-003
9.439411e-003
9.438875e-003
9.438016e-003
9.436707e-003
9.434799e-003
9.432132e-003
9.428542e-003
9.423878e-003
9.418025e-003
9.410912e-003
9.402532e-003
9.392946e-003
9.382277e-003
9.370705e-003
9.358446e-003
9.345734e-003
9.332803e-003
9.319870e-003
9.307123e-003
9.294714e-003
9.282757e-003
9.271330e-003
9.260473e-003
9.250201e-003
9.240509e-003
9.231377e-003
9.222775e-003
9.214674e-003
9.207045e-003
9.199865e-003
9.193115e-003
9.186784e-003
9.180867e-003
9.175365e-003
9.170280e-003
9.165621e-003
9.161396e-003
9.157613e-003
9.154280e-003
9.151404e-003
9.148988e-003
9.147035e-003
9.145546e-003
9.144517e-003
9.143945e-003
9.143826e-003
9.144154e-003
9.144928e-003
9.146152e-003
9.147841e-003
9.150026e-003
9.152764e-003
9.156140e-003
9.160280e-003
9.165344e-003
9.171534e-003
9.179072e-003
9.188190e-003
9.199097e-003
9.211941e-003
9.226774e-003
9.243518e-003
9.261937e-003
9.281634e-003
9.302066e-003
9.322588e-003
9.342510e-003
9.361181e-003
9.378053e-003
9.392742e-003
9.405055e-003
9.414991e-003
9.422705e-003
9.428464e-003
9.432597e-003
9.435445e-003
9.437324e-003
9.438510e-003
9.439219e-003
9.439619e-003
9.439827e-003
9.439924e-003
9.439960e-003
9.439967e-003
9.439961e-003
9.439953e-003
9.439946e-003
9.439942e-003
9.439942e-003
9.439945e-003
9.439951e-003
9.439960e-003
9.439970e-003
9.439981e-003
9.439989e-003
9.439986e-003
9.439958e-003
9.439879e-003
9.439710e-003
9.439389e-003
9.438832e-003
9.437919e-003
9.436498e-003
9.434386e-003
9.431372e-003
9.427241e-003
9.421787e-003
9.414852e-003
9.406345e-003
9.396276e-003
9.384763e-003
9.372032e-003
9.358400e-003
9.344243e-003
9.329956e-003
9.315919e-003
9.302467e-003
9.289871e-003
9.278326e-003
9.267953e-003
9.258809e-003
9.250894e-003
9.244171e-003
9.238576e-003
9.234038e-003
9.230487e-003
9.227866e-003
9.226134e-003
9.225266e-003
9.225255e-003
9.226103e-003
9.227815e-003
9.230394e-003
9.233835e-003
9.238119e-003
9.243208e-003
9.249043e-003
9.255544e-003
9.262607e-003
9.270105e-003
9.277892e-003
9.285800e-003
9.293640e-003
9.301204e-003
9.308264e-003
9.314576e-003
9.319883e-003
9.323922e-003
9.326437e-003
9.327196e-003
9.326012e-003
9.322777e-003
9.317487e-003
9.310282e-003
9.301466e-003
9.291533e-003
9.281156e-003
9.271171e-003
9.262516e-003
9.256156e-003
9.252979e-003
9.253690e-003
9.258698e-003
9.268046e-003
9.281365e-003
9.297902e-003
9.316604e-003
9.336256e-003
9.355646e-003
9.373724e-003
9.389716e-003
9.403182e-003
9.413999e-003
9.422304e-003
9.428407e-003
9.432702e-003
9.435598e-003
9.437464e-003
9.438613e-003
9.439283e-003
9.439651e-003
9.439837e-003
9.439921e-003
9.439952e-003
9.439958e-003
9.439954e-003
9.439949e-003
9.439945e-003
9.439950e-003
9.439953e-003
9.439961e-003
9.439970e-003
9.439978e-003
9.439983e-003
9.439974e-003
9.439935e-003
9.439837e-003
9.439630e-003
9.439236e-003
9.438543e-003
9.437389e-003
9.435564e-003
9.432801e-003
9.428792e-003
9.423206e-003
9.415737e-003
9.406154e-003
9.394371e-003
9.380501e-003
9.364901e-003
9.348167e-003
9.331098e-003
9.314610e-003
9.299642e-003
9.287047e-003
9.277517e-003
9.271530e-003
9.269340e-003
9.270990e-003
9.276353e-003
9.285173e-003
9.297122e-003
9.311840e-003
9.328985e-003
9.348265e-003
9.369461e-003
9.392441e-003
9.417153e-003
9.443619e-003
9.471903e-003
9.502092e-003
9.534262e-003
9.568450e-003
9.604634e-003
9.642715e-003
9.682504e-003
9.723718e-003
9.765981e-003
9.808826e-003
9.851702e-003
9.893977e-003
9.934943e-003
9.973820e-003
1.000975e-002
1.004181e-002
1.006901e-002
1.009029e-002
1.010457e-002
1.011075e-002
1.010779e-002
1.009477e-002
1.007096e-002
1.003597e-002
9.989835e-003
9.933125e-003
9.867050e-003
9.793500e-003
9.715024e-003
9.634739e-003
9.556148e-003
9.482870e-003
9.418318e-003
9.365337e-003
9.325872e-003
9.300707e-003
9.289362e-003
9.290165e-003
9.300530e-003
9.317374e-003
9.337584e-003
9.358445e-003
9.377911e-003
9.394718e-003
9.408318e-003
9.418716e-003
9.426268e-003
9.431497e-003
9.434956e-003
9.437140e-003
9.438456e-003
9.439209e-003
9.439615e-003
9.439818e-003
9.439910e-003
9.439945e-003
9.439954e-003
9.439953e-003
9.439952e-003
9.439962e-003
9.439966e-003
9.439973e-003
9.439981e-003
9.439984e-003
9.439972e-003
9.439924e-003
9.439807e-003
9.439559e-003
9.439084e-003
9.438231e-003
9.436785e-003
9.434448e-003
9.430836e-003
9.425490e-003
9.417909e-003
9.407629e-003
9.394332e-003
9.378000e-003
9.359063e-003
9.338521e-003
9.317981e-003
9.299568e-003
9.285731e-003
9.278957e-003
9.281472e-003
9.294981e-003
9.320512e-003
9.358371e-003
9.408205e-003
9.469137e-003
9.539933e-003
9.619173e-003
9.705404e-003
9.797271e-003
9.893619e-003
9.993563e-003
1.009653e-002
1.020225e-002
1.031073e-002
1.042218e-002
1.053695e-002
1.065539e-002
1.077780e-002
1.090433e-002
1.103493e-002
1.116927e-002
1.130677e-002
1.144655e-002
1.158744e-002
1.172806e-002
1.186675e-002
1.200166e-002
1.213074e-002
1.225173e-002
1.236218e-002
1.245945e-002
1.254069e-002
1.260289e-002
1.264290e-002
1.265749e-002
1.264349e-002
1.259798e-002
1.251848e-002
1.240324e-002
1.225158e-002
1.206419e-002
1.184346e-002
1.159366e-002
1.132105e-002
1.103379e-002
1.074160e-002
1.045519e-002
1.018547e-002
9.942599e-003
9.734893e-003
9.567895e-003
9.443697e-003
9.360739e-003
9.314194e-003
9.296881e-003
9.300514e-003
9.316991e-003
9.339428e-003
9.362752e-003
9.383802e-003
9.401069e-003
9.414228e-003
9.423666e-003
9.430082e-003
9.434235e-003
9.436799e-003
9.438307e-003
9.439149e-003
9.439593e-003
9.439811e-003
9.439908e-003
9.439945e-003
9.439957e-003
9.439959e-003
9.439980e-003
9.439983e-003
9.439988e-003
9.439990e-003
9.439976e-003
9.439925e-003
9.439796e-003
9.439519e-003
9.438976e-003
9.437982e-003
9.436257e-003
9.433404e-003
9.428892e-003
9.422067e-003
9.412200e-003
9.398621e-003
9.380936e-003
9.359349e-003
9.335049e-003
9.310558e-003
9.289914e-003
9.278570e-003
9.282945e-003
9.309687e-003
9.364805e-003
9.452869e-003
9.576469e-003
9.736010e-003
9.929863e-003
1.015477e-002
1.040640e-002
1.067987e-002
1.097028e-002
1.127307e-002
1.158432e-002
1.190093e-002
1.222071e-002
1.254244e-002
1.286576e-002
1.319103e-002
1.351913e-002
1.385121e-002
1.418839e-002
1.453158e-002
1.488125e-002
1.523728e-002
1.559888e-002
1.596456e-002
1.633214e-002
1.669879e-002
1.706108e-002
1.741509e-002
1.775643e-002
1.808029e-002
1.838143e-002
1.865422e-002
1.889255e-002
1.908990e-002
1.923924e-002
1.933319e-002
1.936408e-002
1.932416e-002
1.920598e-002
1.900279e-002
1.870919e-002
1.832180e-002
1.784005e-002
1.726700e-002
1.661000e-002
1.588126e-002
1.509797e-002
1.428205e-002
1.345929e-002
1.265785e-002
1.190613e-002
1.123007e-002
1.065036e-002
1.017991e-002
9.822272e-003
9.571547e-003
9.413831e-003
9.330004e-003
9.299125e-003
9.301623e-003
9.321550e-003
9.347574e-003
9.372818e-003
9.393950e-003
9.410013e-003
9.421370e-003
9.428936e-003
9.433718e-003
9.436596e-003
9.438244e-003
9.439141e-003
9.439601e-003
9.439820e-003
9.439916e-003
9.439954e-003
9.439965e-003
9.440003e-003
9.440003e-003
9.440001e-003
9.439985e-003
9.439934e-003
9.439804e-003
9.439514e-003
9.438931e-003
9.437837e-003
9.435891e-003
9.432595e-003
9.427255e-003
9.418986e-003
9.406784e-003
9.389726e-003
9.367369e-003
9.340403e-003
9.311517e-003
9.286332e-003
9.274078e-003
9.287652e-003
9.342794e-003
9.456354e-003
9.644008e-003
9.917940e-003
1.028508e-002
1.074628e-002
1.129655e-002
1.192609e-002
1.262192e-002
1.336954e-002
1.415441e-002
1.496313e-002
1.578416e-002
1.660825e-002
1.742870e-002
1.824131e-002
1.904423e-002
1.983767e-002
2.062340e-002
2.140418e-002
2.218322e-002
2.296352e-002
2.374743e-002
2.453619e-002
2.532972e-002
2.612646e-002
2.692337e-002
2.771601e-002
2.849870e-002
2.926470e-002
3.000638e-002
3.071533e-002
3.138246e-002
3.199799e-002
3.255143e-002
3.303151e-002
3.342604e-002
3.372191e-002
3.390504e-002
3.396054e-002
3.387291e-002
3.362653e-002
3.320635e-002
3.259882e-002
3.179315e-002
3.078280e-002
2.956712e-002
2.815316e-002
2.655729e-002
2.480658e-002
2.293953e-002
2.100579e-002
1.906451e-002
1.718097e-002
1.542124e-002
1.384538e-002
1.250013e-002
1.141269e-002
1.058730e-002
1.000584e-002
9.632388e-003
9.420806e-003
9.323115e-003
9.296559e-003
9.307892e-003
9.334539e-003
9.363341e-003
9.388066e-003
9.406790e-003
9.419814e-003
9.428297e-003
9.433524e-003
9.436584e-003
9.438289e-003
9.439189e-003
9.439637e-003
9.439845e-003
9.439933e-003
9.439964e-003
9.440026e-003
9.440021e-003
9.440003e-003
9.439952e-003
9.439825e-003
9.439541e-003
9.438952e-003
9.437816e-003
9.435742e-003
9.432138e-003
9.426150e-003
9.416653e-003
9.402325e-003
9.381943e-003
9.355035e-003
9.323064e-003
9.291196e-003
9.270476e-003
9.279795e-003
9.346768e-003
9.506604e-003
9.798577e-003
1.026057e-002
1.092293e-002
1.180338e-002
1.290407e-002
1.421167e-002
1.569995e-002
1.733399e-002
1.907496e-002
2.088437e-002
2.272724e-002
2.457406e-002
2.640162e-002
2.819319e-002
2.993821e-002
3.163164e-002
3.327320e-002
3.486634e-002
3.641715e-002
3.793312e-002
3.942200e-002
4.089072e-002
4.234457e-002
4.378660e-002
4.521725e-002
4.663436e-002
4.803324e-002
4.940697e-002
5.074682e-002
5.204257e-002
5.328291e-002
5.445560e-002
5.554767e-002
5.654536e-002
5.743400e-002
5.819785e-002
5.881979e-002
5.928110e-002
5.956126e-002
5.963780e-002
5.948638e-002
5.908108e-002
5.839488e-002
5.740071e-002
5.607275e-002
5.438847e-002
5.233111e-002
4.989289e-002
4.707879e-002
4.391066e-002
4.043141e-002
3.670842e-002
3.283517e-002
2.892943e-002
2.512672e-002
2.156834e-002
1.838472e-002
1.567721e-002
1.350283e-002
1.186651e-002
1.072388e-002
9.993796e-003
9.576911e-003
9.374534e-003
9.302789e-003
9.299600e-003
9.324897e-003
9.356454e-003
9.384190e-003
9.405032e-003
9.419245e-003
9.428275e-003
9.433688e-003
9.436767e-003
9.438432e-003
9.439285e-003
9.439696e-003
9.439878e-003
9.439946e-003
9.440045e-003
9.440028e-003
9.439980e-003
9.439861e-003
9.439594e-003
9.439031e-003
9.437916e-003
9.435826e-003
9.432095e-003
9.425735e-003
9.415386e-003
9.399397e-003
9.376190e-003
9.345218e-003
9.308878e-003
9.275715e-003
9.264842e-003
9.310704e-003
9.466351e-003
9.802856e-003
1.040315e-002
1.135036e-002
1.271307e-002
1.453164e-002
1.680968e-002
1.951288e-002
2.257521e-002
2.590991e-002
2.942210e-002
3.302002e-002
3.662315e-002
4.016659e-002
4.360233e-002
4.689836e-002
5.003663e-002
5.301065e-002
5.582309e-002
5.848341e-002
6.100567e-002
6.340645e-002
6.570295e-002
6.791126e-002
7.004508e-002
7.211480e-002
7.412700e-002
7.608431e-002
7.798573e-002
7.982709e-002
8.160166e-002
8.330088e-002
8.491491e-002
8.643313e-002
8.784444e-002
8.913737e-002
9.029997e-002
9.131961e-002
9.218255e-002
9.287357e-002
9.337534e-002
9.366793e-002
9.372820e-002
9.352929e-002
9.304005e-002
9.222475e-002
9.104290e-002
8.944952e-002
8.739603e-002
8.483207e-002
8.170875e-002
7.798368e-002
7.362840e-002
6.863829e-002
6.304466e-002
5.692737e-002
5.042490e-002
4.373743e-002
3.711798e-002
3.084819e-002
2.520018e-002
2.039197e-002
1.654937e-002
1.368735e-002
1.171767e-002
1.047972e-002
9.782571e-003
9.444032e-003
9.316408e-003
9.295907e-003
9.319120e-003
9.352823e-003
9.382801e-003
9.404985e-003
9.419750e-003
9.428874e-003
9.434185e-003
9.437116e-003
9.438651e-003
9.439412e-003
9.439760e-003
9.439893e-003
9.440049e-003
9.440011e-003
9.439907e-003
9.439668e-003
9.439155e-003
9.438117e-003
9.436121e-003
9.432464e-003
9.426060e-003
9.415359e-003
9.398391e-003
9.373172e-003
9.338931e-003
9.298851e-003
9.265162e-003
9.267006e-003
9.360195e-003
9.635842e-003
1.022284e-002
1.127904e-002
1.296894e-002
1.543144e-002
1.874663e-002
2.291289e-002
2.784244e-002
3.337623e-002
3.931245e-002
4.543886e-002
5.156050e-002
5.751769e-002
6.319361e-002
6.851352e-002
7.343898e-002
7.795993e-002
8.208671e-002
8.584327e-002
8.926157e-002
9.237750e-002
9.522761e-002
9.784687e-002
1.002669e-001
1.025149e-001
1.046130e-001
1.065783e-001
1.084229e-001
1.101546e-001
1.117781e-001
1.132951e-001
1.147060e-001
1.160098e-001
1.172054e-001
1.182915e-001
1.192668e-001
1.201300e-001
1.208797e-001
1.215141e-001
1.220305e-001
1.224251e-001
1.226919e-001
1.228229e-001
1.228061e-001
1.226257e-001
1.222598e-001
1.216795e-001
1.208466e-001
1.197116e-001
1.182114e-001
1.162669e-001
1.137816e-001
1.106426e-001
1.067241e-001
1.018983e-001
9.605334e-002
8.912107e-002
8.111210e-002
7.215272e-002
6.251203e-002
5.260318e-002
4.294448e-002
3.407805e-002
2.646419e-002
2.038675e-002
1.590619e-002
1.287693e-002
1.101688e-002
9.996194e-003
9.511874e-003
9.329983e-003
9.294945e-003
9.317208e-003
9.352754e-003
9.384063e-003
9.406653e-003
9.421253e-003
9.430001e-003
9.434938e-003
9.437576e-003
9.438911e-003
9.439537e-003
9.439780e-003
9.440024e-003
9.439950e-003
9.439751e-003
9.439308e-003
9.438388e-003
9.436579e-003
9.433178e-003
9.427062e-003
9.416560e-003
9.399435e-003
9.373268e-003
9.336829e-003
9.293533e-003
9.258543e-003
9.270984e-003
9.411130e-003
9.818690e-003
1.070338e-002
1.233585e-002
1.501004e-002
1.897878e-002
2.437986e-002
3.118035e-002
3.916380e-002
4.796757e-002
5.715548e-002
6.629820e-002
7.503639e-002
8.311405e-002
9.038293e-002
9.678743e-002
1.023409e-001
1.071013e-001
1.111513e-001
1.145825e-001
1.174854e-001
1.199435e-001
1.220299e-001
1.238064e-001
1.253244e-001
1.266256e-001
1.277433e-001
1.287041e-001
1.295295e-001
1.302367e-001
1.308402e-001
1.313524e-001
1.317840e-001
1.321450e-001
1.324440e-001
1.326890e-001
1.328871e-001
1.330446e-001
1.331668e-001
1.332582e-001
1.333225e-001
1.333625e-001
1.333800e-001
1.333759e-001
1.333496e-001
1.332993e-001
1.332210e-001
1.331081e-001
1.329504e-001
1.327327e-001
1.324325e-001
1.320168e-001
1.314371e-001
1.306223e-001
1.294686e-001
1.278285e-001
1.255003e-001
1.222244e-001
1.176951e-001
1.115981e-001
1.036816e-001
9.385938e-002
8.232002e-002
6.959365e-002
5.652009e-002
4.409501e-002
3.323244e-002
2.453812e-002
1.819396e-002
1.399362e-002
1.148853e-002
1.016111e-002
9.555038e-003
9.336161e-003
9.295151e-003
9.319075e-003
9.356243e-003
9.387820e-003
9.409808e-003
9.423538e-003
9.431496e-003
9.435839e-003
9.438078e-003
9.439147e-003
9.439568e-003
9.439949e-003
9.439814e-003
9.439460e-003
9.438690e-003
9.437131e-003
9.434126e-003
9.428582e-003
9.418796e-003
9.402365e-003
9.376461e-003
9.339164e-003
9.293269e-003
9.254977e-003
9.270467e-003
9.442104e-003
9.960966e-003
1.113313e-002
1.337739e-002
1.717037e-002
2.293097e-002
3.086975e-002
4.086388e-002
5.242549e-002
6.479253e-002
7.710798e-002
8.861021e-002
9.876342e-002
1.072999e-001
1.141874e-001
1.195577e-001
1.236290e-001
1.266463e-001
1.288435e-001
1.304227e-001
1.315479e-001
1.323448e-001
1.329060e-001
1.332980e-001
1.335677e-001
1.337487e-001
1.338652e-001
1.339356e-001
1.339741e-001
1.339920e-001
1.339983e-001
1.340000e-001
1.340020e-001
1.340074e-001
1.340176e-001
1.340326e-001
1.340514e-001
1.340727e-001
1.340951e-001
1.341177e-001
1.341404e-001
1.341638e-001
1.341892e-001
1.342184e-001
1.342535e-001
1.342964e-001
1.343480e-001
1.344080e-001
1.344738e-001
1.345397e-001
1.345959e-001
1.346284e-001
1.346185e-001
1.345441e-001
1.343806e-001
1.341012e-001
1.336733e-001
1.330454e-001
1.321187e-001
1.307021e-001
1.284553e-001
1.248484e-001
1.191967e-001
1.108374e-001
9.944234e-002
8.533362e-002
6.959240e-002
5.382849e-002
3.968100e-002
2.830488e-002
2.010694e-002
1.481669e-002
1.177196e-002
1.022736e-002
9.557658e-003
9.331666e-003
9.296410e-003
9.324749e-003
9.362988e-003
9.393622e-003
9.414033e-003
9.426300e-003
9.433158e-003
9.436759e-003
9.438508e-003
9.439205e-003
9.439796e-003
9.439565e-003
9.438969e-003
9.437700e-003
9.435178e-003
9.430402e-003
9.421739e-003
9.406756e-003
9.382329e-003
9.345735e-003
9.298312e-003
9.254757e-003
9.262798e-003
9.437959e-003
1.001307e-002
1.138871e-002
1.415051e-002
1.900435e-002
2.659354e-002
3.722159e-002
5.059339e-002
6.573863e-002
8.121677e-002
9.553613e-002
1.075796e-001
1.168384e-001
1.233907e-001
1.276994e-001
1.303672e-001
1.319503e-001
1.328729e-001
1.334181e-001
1.337559e-001
1.339774e-001
1.341242e-001
1.342110e-001
1.342409e-001
1.342141e-001
1.341323e-001
1.339986e-001
1.338175e-001
1.335936e-001
1.333306e-001
1.330312e-001
1.326972e-001
1.323298e-001
1.319300e-001
1.314993e-001
1.310407e-001
1.305584e-001
1.300585e-001
1.295493e-001
1.290408e-001
1.285448e-001
1.280746e-001
1.276450e-001
1.272719e-001
1.269722e-001
1.267638e-001
1.266653e-001
1.266952e-001
1.268721e-001
1.272126e-001
1.277302e-001
1.284326e-001
1.293180e-001
1.303705e-001
1.315543e-001
1.328065e-001
1.340307e-001
1.350930e-001
1.358269e-001
1.360588e-001
1.356602e-001
1.346041e-001
1.329407e-001
1.305935e-001
1.270277e-001
1.211078e-001
1.115092e-001
9.762960e-002
8.033401e-002
6.183334e-002
4.473531e-002
3.096410e-002
2.122207e-002
1.513877e-002
1.178673e-002
1.017378e-002
9.518899e-003
9.319155e-003
9.300119e-003
9.334223e-003
9.372366e-003
9.400788e-003
9.418808e-003
9.429197e-003
9.434766e-003
9.437514e-003
9.438621e-003
9.439532e-003
9.439154e-003
9.438199e-003
9.436199e-003
9.432290e-003
9.425003e-003
9.412019e-003
9.390113e-003
9.355856e-003
9.308641e-003
9.259382e-003
9.250931e-003
9.398303e-003
9.953747e-003
1.138670e-002
1.443720e-002
2.006330e-002
2.919481e-002
4.228179e-002
5.880493e-002
7.708918e-002
9.471142e-002
1.094121e-001
1.199863e-001
1.265810e-001
1.302640e-001
1.322739e-001
1.334863e-001
1.342940e-001
1.347652e-001
1.348588e-001
1.345553e-001
1.338885e-001
1.329252e-001
1.317395e-001
1.303978e-001
1.289534e-001
1.274462e-001
1.259044e-001
1.243462e-001
1.227823e-001
1.212179e-001
1.196549e-001
1.180938e-001
1.165351e-001
1.149805e-001
1.134339e-001
1.119013e-001
1.103910e-001
1.089136e-001
1.074813e-001
1.061077e-001
1.048074e-001
1.035960e-001
1.024898e-001
1.015059e-001
1.006628e-001
9.998056e-002
9.948156e-002
9.919079e-002
9.913657e-002
9.935095e-002
9.986996e-002
1.007335e-001
1.019849e-001
1.036689e-001
1.058291e-001
1.085024e-001
1.117099e-001
1.154414e-001
1.196323e-001
1.241294e-001
1.286496e-001
1.327477e-001
1.358311e-001
1.372898e-001
1.367867e-001
1.345547e-001
1.311624e-001
1.264264e-001
1.186380e-001
1.057559e-001
8.769895e-002
6.705949e-002
4.755469e-002
3.197978e-002
2.127787e-002
1.487502e-002
1.152891e-002
1.001796e-002
9.453348e-003
9.305668e-003
9.308148e-003
9.347110e-003
9.383447e-003
9.408515e-003
9.423592e-003
9.431880e-003
9.436037e-003
9.437730e-003
9.439112e-003
9.438525e-003
9.437059e-003
9.434035e-003
9.428212e-003
9.417522e-003
9.398862e-003
9.368389e-003
9.323615e-003
9.270473e-003
9.241837e-003
9.338154e-003
9.801633e-003
1.112349e-002
1.414637e-002
2.005963e-002
3.013134e-002
4.507521e-002
6.422209e-002
8.508057e-002
1.040011e-001
1.179682e-001
1.262985e-001
1.306198e-001
1.330881e-001
1.347630e-001
1.355518e-001
1.350851e-001
1.332954e-001
1.304298e-001
1.268562e-001
1.229191e-001
1.188797e-001
1.149106e-001
1.111120e-001
1.075325e-001
1.041872e-001
1.010706e-001
9.816528e-002
9.544823e-002
9.289446e-002
9.048009e-002
8.818412e-002
8.598967e-002
8.388447e-002
8.186092e-002
7.991574e-002
7.804937e-002
7.626517e-002
7.456867e-002
7.296684e-002
7.146756e-002
7.007929e-002
6.881089e-002
6.767178e-002
6.667223e-002
6.582379e-002
6.513993e-002
6.463678e-002
6.433392e-002
6.425538e-002
6.443071e-002
6.489620e-002
6.569628e-002
6.688512e-002
6.852831e-002
7.070449e-002
7.350658e-002
7.704161e-002
8.142728e-002
8.678143e-002
9.319786e-002
1.006986e-001
1.091506e-001
1.181414e-001
1.268370e-001
1.339257e-001
1.378872e-001
1.378348e-001
1.344933e-001
1.294841e-001
1.223853e-001
1.101792e-001
9.142492e-002
6.896468e-002
4.769107e-002
3.114598e-002
2.026228e-002
1.409635e-002
1.107269e-002
9.807786e-003
9.383675e-003
9.298768e-003
9.321463e-003
9.362411e-003
9.395098e-003
9.415999e-003
9.427866e-003
9.433935e-003
9.436434e-003
9.438490e-003
9.437617e-003
9.435456e-003
9.431057e-003
9.422700e-003
9.407614e-003
9.381927e-003
9.341816e-003
9.288412e-003
9.242446e-003
9.280073e-003
9.606399e-003
1.067848e-002
1.335641e-002
1.898053e-002
2.916129e-002
4.504204e-002
6.608241e-002
8.912854e-002
1.091750e-001
1.224112e-001
1.291830e-001
1.328190e-001
1.353188e-001
1.359957e-001
1.337690e-001
1.287321e-001
1.218339e-001
1.141329e-001
1.064174e-001
9.915118e-002
9.254938e-002
8.667154e-002
8.149221e-002
7.694619e-002
7.295431e-002
6.943667e-002
6.631883e-002
6.353429e-002
6.102533e-002
5.874308e-002
5.664727e-002
5.470577e-002
5.289388e-002
5.119356e-002
4.959241e-002
4.808268e-002
4.666024e-002
4.532359e-002
4.407303e-002
4.291001e-002
4.183664e-002
4.085545e-002
3.996930e-002
3.918147e-002
3.849593e-002
3.791771e-002
3.745331e-002
3.711129e-002
3.690295e-002
3.684310e-002
3.695107e-002
3.725198e-002
3.777834e-002
3.857222e-002
3.968802e-002
4.119632e-002
4.318873e-002
4.578427e-002
4.913679e-002
5.344222e-002
5.894206e-002
6.591455e-002
7.463735e-002
8.529393e-002
9.778670e-002
1.114337e-001
1.246170e-001
1.347100e-001
1.389961e-001
1.369581e-001
1.313905e-001
1.240349e-001
1.116191e-001
9.158553e-002
6.739427e-002
4.512730e-002
2.863592e-002
1.841622e-002
1.300109e-002
1.053840e-002
9.600094e-003
9.330245e-003
9.302869e-003
9.339368e-003
9.378614e-003
9.406171e-003
9.422506e-003
9.431059e-003
9.434624e-003
9.437621e-003
9.436371e-003
9.433304e-003
9.427131e-003
9.415566e-003
9.395075e-003
9.361265e-003
9.311710e-003
9.255956e-003
9.243061e-003
9.424988e-003
1.017788e-002
1.228369e-002
1.709913e-002
2.648776e-002
4.214484e-002
6.410350e-002
8.909233e-002
1.108361e-001
1.242711e-001
1.305406e-001
1.343211e-001
1.362827e-001
1.338109e-001
1.261800e-001
1.151489e-001
1.029924e-001
9.132240e-002
8.094115e-002
7.208748e-002
6.469955e-002
5.859130e-002
5.354779e-002
4.936850e-002
4.588236e-002
4.294955e-002
4.045795e-002
3.831822e-002
3.645932e-002
3.482477e-002
3.336994e-002
3.205989e-002
3.086775e-002
2.977326e-002
2.876165e-002
2.782247e-002
2.694870e-002
2.613580e-002
2.538102e-002
2.468282e-002
2.404038e-002
2.345332e-002
2.292156e-002
2.244524e-002
2.202481e-002
2.166114e-002
2.135572e-002
2.111095e-002
2.093041e-002
2.081927e-002
2.078475e-002
2.083678e-002
2.098880e-002
2.125893e-002
2.167157e-002
2.225969e-002
2.306815e-002
2.415857e-002
2.561639e-002
2.756122e-002
3.016114e-002
3.365157e-002
3.835657e-002
4.470516e-002
5.322241e-002
6.445253e-002
7.874003e-002
9.578161e-002
1.139484e-001
1.297450e-001
1.385644e-001
1.381758e-001
1.321183e-001
1.240866e-001
1.103964e-001
8.819888e-002
6.248644e-002
4.027530e-002
2.495896e-002
1.615182e-002
1.183909e-002
1.004477e-002
9.438439e-003
9.303651e-003
9.317809e-003
9.359724e-003
9.394040e-003
9.415631e-003
9.427269e-003
9.432193e-003
9.436466e-003
9.434740e-003
9.430538e-003
9.422169e-003
9.406712e-003
9.379919e-003
9.337456e-003
9.280697e-003
9.235089e-003
9.297698e-003
9.740372e-003
1.119214e-002
1.487385e-002
2.270959e-002
3.689898e-002
5.844871e-002
8.486629e-002
1.092150e-001
1.243651e-001
1.309267e-001
1.349035e-001
1.358569e-001
1.295407e-001
1.162827e-001
9.986860e-002
8.376173e-002
6.979095e-002
5.846660e-002
4.960480e-002
4.277294e-002
3.751755e-002
3.345182e-002
3.027393e-002
2.775812e-002
2.573865e-002
2.409428e-002
2.273598e-002
2.159766e-002
2.062977e-002
1.979480e-002
1.906427e-002
1.841656e-002
1.783541e-002
1.730876e-002
1.682784e-002
1.638641e-002
1.598009e-002
1.560592e-002
1.526187e-002
1.494655e-002
1.465895e-002
1.439829e-002
1.416398e-002
1.395552e-002
1.377258e-002
1.361506e-002
1.348315e-002
1.337746e-002
1.329914e-002
1.325009e-002
1.323317e-002
1.325250e-002
1.331388e-002
1.342543e-002
1.359844e-002
1.384870e-002
1.419857e-002
1.468008e-002
1.533999e-002
1.624766e-002
1.750767e-002
1.927933e-002
2.180586e-002
2.545475e-002
3.076461e-002
3.847648e-002
4.949007e-002
6.462406e-002
8.400833e-002
1.060245e-001
1.262480e-001
1.381664e-001
1.382847e-001
1.315367e-001
1.225517e-001
1.062651e-001
8.120413e-002
5.474514e-002
3.394066e-002
2.082540e-002
1.391497e-002
1.082450e-002
9.669915e-003
9.341297e-003
9.303354e-003
9.339873e-003
9.379811e-003
9.407159e-003
9.422458e-003
9.429045e-003
9.435002e-003
9.432698e-003
9.427126e-003
9.416148e-003
9.396176e-003
9.362435e-003
9.311670e-003
9.252643e-003
9.237076e-003
9.435559e-003
1.029272e-002
1.277707e-002
1.863546e-002
3.030724e-002
4.984630e-002
7.642400e-002
1.038189e-001
1.226557e-001
1.305045e-001
1.345790e-001
1.352273e-001
1.262945e-001
1.085463e-001
8.780748e-002
6.882316e-002
5.360071e-002
4.225945e-002
3.411953e-002
2.835628e-002
2.426758e-002
2.133249e-002
1.918878e-002
1.759168e-002
1.637716e-002
1.543485e-002
1.468954e-002
1.408919e-002
1.359704e-002
1.318668e-002
1.283883e-002
1.253926e-002
1.227744e-002
1.204559e-002
1.183803e-002
1.165065e-002
1.148049e-002
1.132548e-002
1.118415e-002
1.105546e-002
1.093860e-002
1.083298e-002
1.073807e-002
1.065341e-002
1.057863e-002
1.051337e-002
1.045740e-002
1.041059e-002
1.037295e-002
1.034473e-002
1.032644e-002
1.031893e-002
1.032355e-002
1.034230e-002
1.037806e-002
1.043501e-002
1.051924e-002
1.063964e-002
1.080958e-002
1.104949e-002
1.139144e-002
1.188702e-002
1.262094e-002
1.373441e-002
1.546393e-002
1.820150e-002
2.257628e-002
2.953389e-002
4.033031e-002
5.625215e-002
7.777493e-002
1.030023e-001
1.261075e-001
1.386243e-001
1.372818e-001
1.297072e-001
1.190001e-001
9.855454e-002
7.081592e-002
4.516432e-002
2.717870e-002
1.694094e-002
1.204819e-002
1.007760e-002
9.437521e-003
9.303686e-003
9.321374e-003
9.364021e-003
9.397131e-003
9.416561e-003
9.425104e-003
9.433224e-003
9.430245e-003
9.423085e-003
9.409123e-003
9.384141e-003
9.343188e-003
9.285564e-003
9.232155e-003
9.273767e-003
9.683987e-003
1.113579e-002
1.501234e-002
2.361241e-002
3.966989e-002
6.434174e-002
9.378897e-002
1.180521e-001
1.293796e-001
1.335396e-001
1.350545e-001
1.261296e-001
1.057667e-001
8.148457e-002
5.986469e-002
4.347949e-002
3.216537e-002
2.473702e-002
1.995957e-002
1.688495e-002
1.487587e-002
1.353113e-002
1.260529e-002
1.194902e-002
1.147056e-002
1.111250e-002
1.083805e-002
1.062302e-002
1.045108e-002
1.031090e-002
1.019450e-002
1.009614e-002
1.001165e-002
9.938052e-003
9.873160e-003
9.815421e-003
9.763727e-003
9.717287e-003
9.675530e-003
9.638028e-003
9.604448e-003
9.574509e-003
9.547961e-003
9.524574e-003
9.504135e-003
9.486448e-003
9.471342e-003
9.458678e-003
9.448362e-003
9.440357e-003
9.434700e-003
9.431529e-003
9.431113e-003
9.433904e-003
9.440622e-003
9.452374e-003
9.470867e-003
9.498760e-003
9.540280e-003
9.602337e-003
9.696594e-003
9.843369e-003
1.007912e-002
1.047078e-002
1.114292e-002
1.232710e-002
1.444535e-002
1.823296e-002
2.487129e-002
3.600659e-002
5.335908e-002
7.748104e-002
1.055200e-001
1.294214e-001
1.392560e-001
1.349551e-001
1.266852e-001