# vtk DataFile Version 3.0
vtk output
ASCII
DATASET STRUCTURED_POINTS
DIMENSIONS 100 100 1
SPACING 1 1 1
ORIGIN 0 0 0
POINT_DATA 10000
SCALARS SFBox_profile double
LOOKUP_TABLE default 
9.439916e-003
9.439918e-003
9.439920e-003
9.439921e-003
9.439922e-003
9.439921e-003
9.439920e-003
9.439920e-003
9.439921e-003
9.439922e-003
9.439924e-003
9.439925e-003
9.439927e-003
9.439930e-003
9.439933e-003
9.439937e-003
9.439941e-003
9.439945e-003
9.439950e-003
9.439955e-003
9.439960e-003
9.439965e-003
9.439968e-003
9.439970e-003
9.439971e-003
9.439971e-003
9.439969e-003
9.439965e-003
9.439959e-003
9.439952e-003
9.439943e-003
9.439932e-003
9.439920e-003
9.439906e-003
9.439892e-003
9.439877e-003
9.439862e-003
9.439846e-003
9.439830e-003
9.439814e-003
9.439799e-003
9.439784e-003
9.439769e-003
9.439754e-003
9.439740e-003
9.439727e-003
9.439715e-003
9.439704e-003
9.439694e-003
9.439686e-003
9.439680e-003
9.439677e-003
9.439676e-003
9.439677e-003
9.439682e-003
9.439690e-003
9.439702e-003
9.439716e-003
9.439734e-003
9.439754e-003
9.439777e-003
9.439801e-003
9.439826e-003
9.439850e-003
9.439874e-003
9.439896e-003
9.439915e-003
9.439931e-003
9.439944e-003
9.439953e-003
9.439959e-003
9.439961e-003
9.439961e-003
9.439959e-003
9.439955e-003
9.439951e-003
9.439946e-003
9.439941e-003
9.439937e-003
9.439933e-003
9.439930e-003
9.439927e-003
9.439925e-003
9.439923e-003
9.439922e-003
9.439921e-003
9.439921e-003
9.439920e-003
9.439920e-003
9.439920e-003
9.439920e-003
9.439920e-003
9.439920e-003
9.439920e-003
9.439920e-003
9.439920e-003
9.439920e-003
9.439920e-003
9.439920e-003
9.439920e-003
9.439916e-003
9.439918e-003
9.439920e-003
9.439921e-003
9.439922e-003
9.439921e-003
9.439920e-003
9.439920e-003
9.439921e-003
9.439922e-003
9.439924e-003
9.439925e-003
9.439927e-003
9.439930e-003
9.439933e-003
9.439937e-003
9.439941e-003
9.439945e-003
9.439950e-003
9.439955e-003
9.439960e-003
9.439965e-003
9.439968e-003
9.439970e-003
9.439971e-003
9.439971e-003
9.439969e-003
9.439965e-003
9.439959e-003
9.439952e-003
9.439943e-003
9.439932e-003
9.439920e-003
9.439906e-003
9.439892e-003
9.439877e-003
9.439862e-003
9.439846e-003
9.439830e-003
9.439814e-003
9.439799e-003
9.439784e-003
9.439769e-003
9.439754e-003
9.439740e-003
9.439727e-003
9.439715e-003
9.439704e-003
9.439694e-003
9.439686e-003
9.439680e-003
9.439677e-003
9.439676e-003
9.439677e-003
9.439682e-003
9.439690e-003
9.439702e-003
9.439716e-003
9.439734e-003
9.439754e-003
9.439777e-003
9.439801e-003
9.439826e-003
9.439850e-003
9.439874e-003
9.439896e-003
9.439915e-003
9.439931e-003
9.439944e-003
9.439953e-003
9.439959e-003
9.439961e-003
9.439961e-003
9.439959e-003
9.439955e-003
9.439951e-003
9.439946e-003
9.439941e-003
9.439937e-003
9.439933e-003
9.439930e-003
9.439927e-003
9.439925e-003
9.439923e-003
9.439922e-003
9.439921e-003
9.439921e-003
9.439920e-003
9.439920e-003
9.439920e-003
9.439920e-003
9.439920e-003
9.439920e-003
9.439920e-003
9.439920e-003
9.439920e-003
9.439920e-003
9.439920e-003
9.439920e-003
9.439920e-003
9.439920e-003
9.439920e-003
9.439920e-003
9.439920e-003
9.439920e-003
9.439920e-003
9.439921e-003
9.439922e-003
9.439923e-003
9.439924e-003
9.439925e-003
9.439927e-003
9.439930e-003
9.439933e-003
9.439936e-003
9.439941e-003
9.439945e-003
9.439949e-003
9.439953e-003
9.439956e-003
9.439958e-003
9.439959e-003
9.439956e-003
9.439950e-003
9.439942e-003
9.439929e-003
9.439913e-003
9.439893e-003
9.439869e-003
9.439842e-003
9.439812e-003
9.439779e-003
9.439744e-003
9.439708e-003
9.439670e-003
9.439631e-003
9.439593e-003
9.439554e-003
9.439516e-003
9.439479e-003
9.439442e-003
9.439407e-003
9.439373e-003
9.439340e-003
9.439310e-003
9.439281e-003
9.439255e-003
9.439232e-003
9.439212e-003
9.439197e-003
9.439185e-003
9.439179e-003
9.439178e-003
9.439184e-003
9.439197e-003
9.439216e-003
9.439243e-003
9.439277e-003
9.439318e-003
9.439366e-003
9.439418e-003
9.439475e-003
9.439534e-003
9.439595e-003
9.439654e-003
9.439711e-003
9.439763e-003
9.439810e-003
9.439850e-003
9.439883e-003
9.439909e-003
9.439928e-003
9.439940e-003
9.439947e-003
9.439950e-003
9.439950e-003
9.439947e-003
9.439944e-003
9.439940e-003
9.439936e-003
9.439932e-003
9.439929e-003
9.439926e-003
9.439924e-003
9.439923e-003
9.439922e-003
9.439921e-003
9.439921e-003
9.439920e-003
9.439920e-003
9.439920e-003
9.439920e-003
9.439920e-003
9.439920e-003
9.439920e-003
9.439920e-003
9.439920e-003
9.439920e-003
9.439920e-003
9.439920e-003
9.439923e-003
9.439922e-003
9.439921e-003
9.439920e-003
9.439919e-003
9.439920e-003
9.439922e-003
9.439924e-003
9.439925e-003
9.439927e-003
9.439929e-003
9.439932e-003
9.439935e-003
9.439939e-003
9.439943e-003
9.439948e-003
9.439951e-003
9.439953e-003
9.439953e-003
9.439948e-003
9.439939e-003
9.439924e-003
9.439902e-003
9.439872e-003
9.439833e-003
9.439784e-003
9.439726e-003
9.439659e-003
9.439583e-003
9.439500e-003
9.439410e-003
9.439316e-003
9.439217e-003
9.439115e-003
9.439012e-003
9.438909e-003
9.438806e-003
9.438705e-003
9.438606e-003
9.438510e-003
9.438417e-003
9.438328e-003
9.438243e-003
9.438163e-003
9.438087e-003
9.438018e-003
9.437955e-003
9.437900e-003
9.437853e-003
9.437816e-003
9.437791e-003
9.437778e-003
9.437779e-003
9.437795e-003
9.437828e-003
9.437879e-003
9.437948e-003
9.438035e-003
9.438139e-003
9.438259e-003
9.438394e-003
9.438540e-003
9.438694e-003
9.438853e-003
9.439011e-003
9.439165e-003
9.439310e-003
9.439443e-003
9.439561e-003
9.439662e-003
9.439746e-003
9.439812e-003
9.439863e-003
9.439898e-003
9.439922e-003
9.439936e-003
9.439943e-003
9.439945e-003
9.439943e-003
9.439940e-003
9.439937e-003
9.439933e-003
9.439930e-003
9.439927e-003
9.439925e-003
9.439923e-003
9.439922e-003
9.439921e-003
9.439921e-003
9.439920e-003
9.439920e-003
9.439920e-003
9.439920e-003
9.439920e-003
9.439920e-003
9.439920e-003
9.439920e-003
9.439920e-003
9.439920e-003
9.439920e-003
9.439924e-003
9.439923e-003
9.439921e-003
9.439920e-003
9.439920e-003
9.439922e-003
9.439924e-003
9.439926e-003
9.439928e-003
9.439931e-003
9.439934e-003
9.439939e-003
9.439944e-003
9.439948e-003
9.439952e-003
9.439953e-003
9.439950e-003
9.439943e-003
9.439926e-003
9.439899e-003
9.439858e-003
9.439801e-003
9.439725e-003
9.439629e-003
9.439510e-003
9.439369e-003
9.439206e-003
9.439023e-003
9.438820e-003
9.438602e-003
9.438369e-003
9.438127e-003
9.437877e-003
9.437624e-003
9.437369e-003
9.437116e-003
9.436866e-003
9.436621e-003
9.436383e-003
9.436154e-003
9.435934e-003
9.435723e-003
9.435524e-003
9.435336e-003
9.435161e-003
9.435000e-003
9.434856e-003
9.434729e-003
9.434623e-003
9.434540e-003
9.434484e-003
9.434457e-003
9.434462e-003
9.434503e-003
9.434583e-003
9.434704e-003
9.434867e-003
9.435072e-003
9.435320e-003
9.435606e-003
9.435927e-003
9.436277e-003
9.436649e-003
9.437033e-003
9.437421e-003
9.437801e-003
9.438165e-003
9.438503e-003
9.438808e-003
9.439076e-003
9.439302e-003
9.439488e-003
9.439634e-003
9.439745e-003
9.439824e-003
9.439878e-003
9.439913e-003
9.439932e-003
9.439941e-003
9.439943e-003
9.439942e-003
9.439939e-003
9.439935e-003
9.439931e-003
9.439928e-003
9.439926e-003
9.439924e-003
9.439922e-003
9.439921e-003
9.439921e-003
9.439920e-003
9.439920e-003
9.439920e-003
9.439920e-003
9.439920e-003
9.439920e-003
9.439920e-003
9.439920e-003
9.439920e-003
9.439920e-003
9.439922e-003
9.439921e-003
9.439921e-003
9.439922e-003
9.439923e-003
9.439925e-003
9.439927e-003
9.439930e-003
9.439933e-003
9.439937e-003
9.439942e-003
9.439948e-003
9.439953e-003
9.439955e-003
9.439952e-003
9.439942e-003
9.439920e-003
9.439881e-003
9.439821e-003
9.439732e-003
9.439608e-003
9.439444e-003
9.439235e-003
9.438978e-003
9.438670e-003
9.438311e-003
9.437904e-003
9.437453e-003
9.436962e-003
9.436438e-003
9.435887e-003
9.435318e-003
9.434738e-003
9.434154e-003
9.433570e-003
9.432994e-003
9.432430e-003
9.431881e-003
9.431351e-003
9.430842e-003
9.430355e-003
9.429892e-003
9.429456e-003
9.429047e-003
9.428667e-003
9.428320e-003
9.428009e-003
9.427738e-003
9.427512e-003
9.427337e-003
9.427218e-003
9.427164e-003
9.427180e-003
9.427273e-003
9.427450e-003
9.427716e-003
9.428075e-003
9.428527e-003
9.429071e-003
9.429703e-003
9.430415e-003
9.431195e-003
9.432028e-003
9.432896e-003
9.433777e-003
9.434650e-003
9.435492e-003
9.436284e-003
9.437008e-003
9.437651e-003
9.438205e-003
9.438668e-003
9.439041e-003
9.439331e-003
9.439547e-003
9.439702e-003
9.439807e-003
9.439874e-003
9.439914e-003
9.439934e-003
9.439942e-003
9.439943e-003
9.439941e-003
9.439937e-003
9.439932e-003
9.439929e-003
9.439926e-003
9.439924e-003
9.439923e-003
9.439922e-003
9.439921e-003
9.439920e-003
9.439920e-003
9.439920e-003
9.439920e-003
9.439920e-003
9.439920e-003
9.439920e-003
9.439920e-003
9.439920e-003
9.439919e-003
9.439920e-003
9.439922e-003
9.439924e-003
9.439927e-003
9.439929e-003
9.439932e-003
9.439936e-003
9.439941e-003
9.439947e-003
9.439952e-003
9.439956e-003
9.439956e-003
9.439947e-003
9.439923e-003
9.439878e-003
9.439802e-003
9.439684e-003
9.439511e-003
9.439271e-003
9.438949e-003
9.438535e-003
9.438020e-003
9.437397e-003
9.436664e-003
9.435824e-003
9.434884e-003
9.433853e-003
9.432746e-003
9.431576e-003
9.430360e-003
9.429115e-003
9.427856e-003
9.426598e-003
9.425354e-003
9.424133e-003
9.422945e-003
9.421798e-003
9.420696e-003
9.419643e-003
9.418642e-003
9.417696e-003
9.416807e-003
9.415979e-003
9.415213e-003
9.414517e-003
9.413895e-003
9.413356e-003
9.412909e-003
9.412564e-003
9.412335e-003
9.412234e-003
9.412275e-003
9.412471e-003
9.412835e-003
9.413379e-003
9.414109e-003
9.415031e-003
9.416144e-003
9.417440e-003
9.418908e-003
9.420525e-003
9.422264e-003
9.424089e-003
9.425958e-003
9.427827e-003
9.429651e-003
9.431384e-003
9.432987e-003
9.434429e-003
9.435689e-003
9.436756e-003
9.437630e-003
9.438324e-003
9.438853e-003
9.439242e-003
9.439516e-003
9.439700e-003
9.439817e-003
9.439885e-003
9.439922e-003
9.439939e-003
9.439943e-003
9.439942e-003
9.439938e-003
9.439934e-003
9.439930e-003
9.439927e-003
9.439925e-003
9.439923e-003
9.439922e-003
9.439921e-003
9.439920e-003
9.439920e-003
9.439920e-003
9.439920e-003
9.439920e-003
9.439920e-003
9.439920e-003
9.439920e-003
9.439920e-003
9.439922e-003
9.439924e-003
9.439928e-003
9.439931e-003
9.439934e-003
9.439938e-003
9.439944e-003
9.439951e-003
9.439957e-003
9.439960e-003
9.439954e-003
9.439934e-003
9.439891e-003
9.439811e-003
9.439677e-003
9.439469e-003
9.439161e-003
9.438728e-003
9.438143e-003
9.437379e-003
9.436414e-003
9.435233e-003
9.433828e-003
9.432200e-003
9.430360e-003
9.428326e-003
9.426126e-003
9.423789e-003
9.421351e-003
9.418845e-003
9.416308e-003
9.413769e-003
9.411258e-003
9.408798e-003
9.406407e-003
9.404102e-003
9.401892e-003
9.399787e-003
9.397790e-003
9.395906e-003
9.394138e-003
9.392488e-003
9.390960e-003
9.389558e-003
9.388291e-003
9.387168e-003
9.386202e-003
9.385409e-003
9.384805e-003
9.384413e-003
9.384254e-003
9.384353e-003
9.384734e-003
9.385419e-003
9.386431e-003
9.387786e-003
9.389496e-003
9.391566e-003
9.393990e-003
9.396750e-003
9.399818e-003
9.403147e-003
9.406678e-003
9.410340e-003
9.414048e-003
9.417714e-003
9.421248e-003
9.424565e-003
9.427592e-003
9.430275e-003
9.432583e-003
9.434504e-003
9.436051e-003
9.437255e-003
9.438156e-003
9.438807e-003
9.439256e-003
9.439553e-003
9.439739e-003
9.439847e-003
9.439906e-003
9.439933e-003
9.439943e-003
9.439943e-003
9.439939e-003
9.439935e-003
9.439931e-003
9.439927e-003
9.439925e-003
9.439923e-003
9.439922e-003
9.439921e-003
9.439920e-003
9.439920e-003
9.439920e-003
9.439920e-003
9.439920e-003
9.439920e-003
9.439920e-003
9.439925e-003
9.439926e-003
9.439929e-003
9.439932e-003
9.439936e-003
9.439941e-003
9.439948e-003
9.439955e-003
9.439961e-003
9.439962e-003
9.439950e-003
9.439916e-003
9.439845e-003
9.439716e-003
9.439500e-003
9.439160e-003
9.438651e-003
9.437923e-003
9.436922e-003
9.435597e-003
9.433899e-003
9.431792e-003
9.429253e-003
9.426281e-003
9.422891e-003
9.419119e-003
9.415017e-003
9.410648e-003
9.406085e-003
9.401400e-003
9.396665e-003
9.391945e-003
9.387298e-003
9.382772e-003
9.378405e-003
9.374224e-003
9.370249e-003
9.366492e-003
9.362959e-003
9.359653e-003
9.356573e-003
9.353719e-003
9.351091e-003
9.348688e-003
9.346516e-003
9.344581e-003
9.342894e-003
9.341469e-003
9.340325e-003
9.339484e-003
9.338973e-003
9.338822e-003
9.339062e-003
9.339728e-003
9.340856e-003
9.342479e-003
9.344633e-003
9.347344e-003
9.350637e-003
9.354522e-003
9.358996e-003
9.364039e-003
9.369606e-003
9.375626e-003
9.381999e-003
9.388596e-003
9.395267e-003
9.401844e-003
9.408155e-003
9.414041e-003
9.419367e-003
9.424036e-003
9.427997e-003
9.431244e-003
9.433815e-003
9.435776e-003
9.437217e-003
9.438235e-003
9.438924e-003
9.439370e-003
9.439644e-003
9.439803e-003
9.439887e-003
9.439927e-003
9.439942e-003
9.439944e-003
9.439940e-003
9.439935e-003
9.439931e-003
9.439927e-003
9.439925e-003
9.439923e-003
9.439922e-003
9.439921e-003
9.439920e-003
9.439920e-003
9.439920e-003
9.439920e-003
9.439920e-003
9.439920e-003
9.439932e-003
9.439933e-003
9.439935e-003
9.439938e-003
9.439944e-003
9.439952e-003
9.439959e-003
9.439965e-003
9.439963e-003
9.439944e-003
9.439894e-003
9.439789e-003
9.439596e-003
9.439271e-003
9.438752e-003
9.437963e-003
9.436813e-003
9.435205e-003
9.433038e-003
9.430218e-003
9.426669e-003
9.422344e-003
9.417231e-003
9.411364e-003
9.404816e-003
9.397696e-003
9.390141e-003
9.382302e-003
9.374334e-003
9.366386e-003
9.358588e-003
9.351052e-003
9.343864e-003
9.337086e-003
9.330756e-003
9.324895e-003
9.319507e-003
9.314583e-003
9.310109e-003
9.306066e-003
9.302435e-003
9.299197e-003
9.296337e-003
9.293840e-003
9.291696e-003
9.289897e-003
9.288438e-003
9.287315e-003
9.286528e-003
9.286077e-003
9.285966e-003
9.286204e-003
9.286804e-003
9.287784e-003
9.289173e-003
9.291009e-003
9.293345e-003
9.296243e-003
9.299779e-003
9.304035e-003
9.309098e-003
9.315043e-003
9.321924e-003
9.329755e-003
9.338496e-003
9.348034e-003
9.358183e-003
9.368681e-003
9.379214e-003
9.389443e-003
9.399041e-003
9.407732e-003
9.415316e-003
9.421692e-003
9.426851e-003
9.430870e-003
9.433879e-003
9.436046e-003
9.437544e-003
9.438536e-003
9.439164e-003
9.439542e-003
9.439756e-003
9.439868e-003
9.439920e-003
9.439940e-003
9.439944e-003
9.439941e-003
9.439935e-003
9.439931e-003
9.439927e-003
9.439925e-003
9.439923e-003
9.439921e-003
9.439921e-003
9.439920e-003
9.439920e-003
9.439920e-003
9.439920e-003
9.439920e-003
9.439939e-003
9.439940e-003
9.439942e-003
9.439948e-003
9.439956e-003
9.439964e-003
9.439969e-003
9.439964e-003
9.439937e-003
9.439868e-003
9.439725e-003
9.439460e-003
9.439002e-003
9.438259e-003
9.437106e-003
9.435396e-003
9.432957e-003
9.429610e-003
9.425184e-003
9.419539e-003
9.412590e-003
9.404328e-003
9.394837e-003
9.384295e-003
9.372961e-003
9.361154e-003
9.349224e-003
9.337517e-003
9.326350e-003
9.315986e-003
9.306627e-003
9.298405e-003
9.291386e-003
9.285580e-003
9.280949e-003
9.277418e-003
9.274895e-003
9.273273e-003
9.272450e-003
9.272328e-003
9.272822e-003
9.273855e-003
9.275360e-003
9.277273e-003
9.279528e-003
9.282055e-003
9.284773e-003
9.287589e-003
9.290397e-003
9.293076e-003
9.295500e-003
9.297537e-003
9.299063e-003
9.299971e-003
9.300184e-003
9.299676e-003
9.298481e-003
9.296717e-003
9.294589e-003
9.292403e-003
9.290554e-003
9.289512e-003
9.289781e-003
9.291847e-003
9.296109e-003
9.302808e-003
9.311969e-003
9.323363e-003
9.336520e-003
9.350777e-003
9.365362e-003
9.379511e-003
9.392559e-003
9.404024e-003
9.413642e-003
9.421355e-003
9.427276e-003
9.431632e-003
9.434704e-003
9.436781e-003
9.438125e-003
9.438956e-003
9.439443e-003
9.439713e-003
9.439851e-003
9.439915e-003
9.439939e-003
9.439944e-003
9.439941e-003
9.439935e-003
9.439931e-003
9.439927e-003
9.439924e-003
9.439922e-003
9.439921e-003
9.439920e-003
9.439920e-003
9.439920e-003
9.439920e-003
9.439920e-003
9.439947e-003
9.439949e-003
9.439953e-003
9.439961e-003
9.439969e-003
9.439974e-003
9.439967e-003
9.439932e-003
9.439845e-003
9.439663e-003
9.439319e-003
9.438715e-003
9.437713e-003
9.436125e-003
9.433720e-003
9.430222e-003
9.425333e-003
9.418764e-003
9.410282e-003
9.399766e-003
9.387261e-003
9.373022e-003
9.357525e-003
9.341446e-003
9.325605e-003
9.310882e-003
9.298126e-003
9.288074e-003
9.281288e-003
9.278127e-003
9.278738e-003
9.283077e-003
9.290939e-003
9.301997e-003
9.315841e-003
9.332020e-003
9.350078e-003
9.369585e-003
9.390157e-003
9.411470e-003
9.433253e-003
9.455280e-003
9.477349e-003
9.499263e-003
9.520803e-003
9.541709e-003
9.561661e-003
9.580274e-003
9.597086e-003
9.611566e-003
9.623128e-003
9.631149e-003
9.634998e-003
9.634085e-003
9.627903e-003
9.616092e-003
9.598502e-003
9.575262e-003
9.546838e-003
9.514090e-003
9.478283e-003
9.441075e-003
9.404428e-003
9.370472e-003
9.341292e-003
9.318682e-003
9.303892e-003
9.297442e-003
9.299025e-003
9.307553e-003
9.321339e-003
9.338379e-003
9.356668e-003
9.374479e-003
9.390548e-003
9.404139e-003
9.414996e-003
9.423233e-003
9.429189e-003
9.433303e-003
9.436021e-003
9.437737e-003
9.438771e-003
9.439362e-003
9.439682e-003
9.439841e-003
9.439913e-003
9.439939e-003
9.439944e-003
9.439941e-003
9.439935e-003
9.439930e-003
9.439926e-003
9.439924e-003
9.439922e-003
9.439921e-003
9.439921e-003
9.439920e-003
9.439920e-003
9.439920e-003
9.439959e-003
9.439962e-003
9.439968e-003
9.439975e-003
9.439980e-003
9.439971e-003
9.439932e-003
9.439829e-003
9.439612e-003
9.439193e-003
9.438441e-003
9.437166e-003
9.435101e-003
9.431903e-003
9.427153e-003
9.420389e-003
9.411157e-003
9.399111e-003
9.384132e-003
9.366473e-003
9.346873e-003
9.326620e-003
9.307515e-003
9.291740e-003
9.281635e-003
9.279436e-003
9.287023e-003
9.305728e-003
9.336239e-003
9.378587e-003
9.432217e-003
9.496104e-003
9.568885e-003
9.648998e-003
9.734799e-003
9.824672e-003
9.917118e-003
1.001082e-002
1.010468e-002
1.019783e-002
1.028958e-002
1.037940e-002
1.046680e-002
1.055132e-002
1.063240e-002
1.070930e-002
1.078113e-002
1.084672e-002
1.090467e-002
1.095334e-002
1.099090e-002
1.101533e-002
1.102460e-002
1.101668e-002
1.098974e-002
1.094233e-002
1.087350e-002
1.078307e-002
1.067184e-002
1.054174e-002
1.039602e-002
1.023924e-002
1.007720e-002
9.916597e-003
9.764523e-003
9.627758e-003
9.511984e-003
9.421059e-003
9.356514e-003
9.317396e-003
9.300537e-003
9.301186e-003
9.313876e-003
9.333301e-003
9.355015e-003
9.375822e-003
9.393827e-003
9.408246e-003
9.419081e-003
9.426785e-003
9.431994e-003
9.435355e-003
9.437423e-003
9.438637e-003
9.439313e-003
9.439667e-003
9.439839e-003
9.439913e-003
9.439939e-003
9.439944e-003
9.439940e-003
9.439934e-003
9.439929e-003
9.439926e-003
9.439924e-003
9.439922e-003
9.439921e-003
9.439920e-003
9.439920e-003
9.439920e-003
9.439975e-003
9.439979e-003
9.439985e-003
9.439988e-003
9.439978e-003
9.439935e-003
9.439823e-003
9.439580e-003
9.439099e-003
9.438217e-003
9.436683e-003
9.434142e-003
9.430116e-003
9.424006e-003
9.415132e-003
9.402833e-003
9.386641e-003
9.366552e-003
9.343357e-003
9.318969e-003
9.296645e-003
9.280986e-003
9.277660e-003
9.292841e-003
9.332487e-003
9.401597e-003
9.503612e-003
9.640067e-003
9.810538e-003
1.001285e-002
1.024343e-002
1.049779e-002
1.077092e-002
1.105771e-002
1.135319e-002
1.165283e-002
1.195265e-002
1.224938e-002
1.254045e-002
1.282396e-002
1.309855e-002
1.336325e-002
1.361723e-002
1.385960e-002
1.408924e-002
1.430456e-002
1.450345e-002
1.468313e-002
1.484017e-002
1.497048e-002
1.506939e-002
1.513176e-002
1.515223e-002
1.512535e-002
1.504599e-002
1.490969e-002
1.471307e-002
1.445443e-002
1.413425e-002
1.375580e-002
1.332568e-002
1.285412e-002
1.235503e-002
1.184555e-002
1.134501e-002
1.087333e-002
1.044893e-002
1.008660e-002
9.795600e-003
9.578599e-003
9.431596e-003
9.345036e-003
9.305811e-003
9.299658e-003
9.313374e-003
9.336348e-003
9.361202e-003
9.383634e-003
9.401754e-003
9.415260e-003
9.424701e-003
9.430946e-003
9.434876e-003
9.437231e-003
9.438575e-003
9.439302e-003
9.439672e-003
9.439845e-003
9.439917e-003
9.439941e-003
9.439943e-003
9.439938e-003
9.439933e-003
9.439928e-003
9.439925e-003
9.439923e-003
9.439922e-003
9.439921e-003
9.439920e-003
9.439920e-003
9.439997e-003
9.440000e-003
9.440002e-003
9.439990e-003
9.439946e-003
9.439829e-003
9.439572e-003
9.439052e-003
9.438073e-003
9.436328e-003
9.433368e-003
9.428565e-003
9.421110e-003
9.410062e-003
9.394502e-003
9.373855e-003
9.348417e-003
9.320095e-003
9.293231e-003
9.275296e-003
9.277132e-003
9.312487e-003
9.396774e-003
9.545223e-003
9.770822e-003
1.008253e-002
1.048416e-002
1.097403e-002
1.154554e-002
1.218820e-002
1.288896e-002
1.363363e-002
1.440793e-002
1.519835e-002
1.599275e-002
1.678071e-002
1.755370e-002
1.830519e-002
1.903051e-002
1.972663e-002
2.039178e-002
2.102497e-002
2.162549e-002
2.219240e-002
2.272413e-002
2.321805e-002
2.367026e-002
2.407540e-002
2.442660e-002
2.471552e-002
2.493246e-002
2.506659e-002
2.510624e-002
2.503937e-002
2.485403e-002
2.453911e-002
2.408516e-002
2.348541e-002
2.273706e-002
2.184266e-002
2.081159e-002
1.966139e-002
1.841862e-002
1.711887e-002
1.580547e-002
1.452664e-002
1.333116e-002
1.226302e-002
1.135597e-002
1.062909e-002
1.008469e-002
9.708983e-003
9.475748e-003
9.351901e-003
9.303507e-003
9.300719e-003
9.320674e-003
9.348161e-003
9.374606e-003
9.396242e-003
9.412236e-003
9.423213e-003
9.430307e-003
9.434656e-003
9.437191e-003
9.438596e-003
9.439332e-003
9.439695e-003
9.439858e-003
9.439923e-003
9.439942e-003
9.439942e-003
9.439937e-003
9.439932e-003
9.439927e-003
9.439924e-003
9.439922e-003
9.439921e-003
9.439921e-003
9.439921e-003
9.440020e-003
9.440019e-003
9.440008e-003
9.439965e-003
9.439850e-003
9.439592e-003
9.439058e-003
9.438030e-003
9.436152e-003
9.432884e-003
9.427450e-003
9.418817e-003
9.405745e-003
9.387016e-003
9.361951e-003
9.331370e-003
9.299074e-003
9.273713e-003
9.270638e-003
9.312991e-003
9.431273e-003
9.660908e-003
1.003797e-002
1.059395e-002
1.135082e-002
1.231763e-002
1.348934e-002
1.484794e-002
1.636533e-002
1.800714e-002
1.973653e-002
2.151743e-002
2.331685e-002
2.510613e-002
2.686165e-002
2.856486e-002
3.020214e-002
3.176442e-002
3.324653e-002
3.464650e-002
3.596456e-002
3.720218e-002
3.836101e-002
3.944205e-002
4.044477e-002
4.136659e-002
4.220246e-002
4.294457e-002
4.358236e-002
4.410246e-002
4.448898e-002
4.472366e-002
4.478630e-002
4.465519e-002
4.430775e-002
4.372134e-002
4.287441e-002
4.174799e-002
4.032772e-002
3.860651e-002
3.658775e-002
3.428884e-002
3.174476e-002
2.901057e-002
2.616207e-002
2.329328e-002
2.051010e-002
1.792008e-002
1.561950e-002
1.368015e-002
1.213906e-002
1.099431e-002
1.020834e-002
9.718170e-003
9.449244e-003
9.329091e-003
9.297167e-003
9.309404e-003
9.337918e-003
9.367701e-003
9.392370e-003
9.410408e-003
9.422533e-003
9.430174e-003
9.434729e-003
9.437308e-003
9.438695e-003
9.439399e-003
9.439732e-003
9.439876e-003
9.439929e-003
9.439943e-003
9.439941e-003
9.439936e-003
9.439930e-003
9.439926e-003
9.439923e-003
9.439922e-003
9.439921e-003
9.439921e-003
9.440040e-003
9.440028e-003
9.439989e-003
9.439883e-003
9.439638e-003
9.439119e-003
9.438094e-003
9.436177e-003
9.432756e-003
9.426924e-003
9.417428e-003
9.402716e-003
9.381223e-003
9.352132e-003
9.316933e-003
9.282074e-003
9.262720e-003
9.287008e-003
9.399379e-003
9.661072e-003
1.014610e-002
1.093235e-002
1.208940e-002
1.366588e-002
1.568022e-002
1.811685e-002
2.092887e-002
2.404554e-002
2.738258e-002
3.085237e-002
3.437244e-002
3.787097e-002
4.128963e-002
4.458395e-002
4.772243e-002
5.068492e-002
5.346079e-002
5.604710e-002
5.844682e-002
6.066704e-002
6.271721e-002
6.460755e-002
6.634755e-002
6.794477e-002
6.940394e-002
7.072627e-002
7.190913e-002
7.294586e-002
7.382572e-002
7.453402e-002
7.505220e-002
7.535800e-002
7.542552e-002
7.522536e-002
7.472475e-002
7.388783e-002
7.267621e-002
7.105010e-002
6.897018e-002
6.640081e-002
6.331479e-002
5.969992e-002
5.556735e-002
5.096069e-002
4.596447e-002
4.070919e-002
3.536973e-002
3.015428e-002
2.528251e-002
2.095554e-002
1.732394e-002
1.446308e-002
1.236399e-002
1.094340e-002
1.006903e-002
9.591442e-003
9.372146e-003
9.301182e-003
9.302682e-003
9.331211e-003
9.363636e-003
9.390619e-003
9.410027e-003
9.422760e-003
9.430565e-003
9.435084e-003
9.437565e-003
9.438856e-003
9.439490e-003
9.439778e-003
9.439896e-003
9.439935e-003
9.439943e-003
9.439939e-003
9.439933e-003
9.439928e-003
9.439925e-003
9.439923e-003
9.439922e-003
9.439921e-003
9.440049e-003
9.440016e-003
9.439923e-003
9.439701e-003
9.439222e-003
9.438254e-003
9.436395e-003
9.432997e-003
9.427055e-003
9.417130e-003
9.401367e-003
9.377816e-003
9.345414e-003
9.306237e-003
9.269722e-003
9.259307e-003
9.320937e-003
9.531162e-003
1.000082e-002
1.086984e-002
1.229065e-002
1.440195e-002
1.729919e-002
2.101097e-002
2.548894e-002
3.061437e-002
3.621821e-002
4.210800e-002
4.809390e-002
5.400854e-002
5.971840e-002
6.512718e-002
7.017353e-002
7.482557e-002
7.907425e-002
8.292716e-002
8.640307e-002
8.952775e-002
9.233057e-002
9.484194e-002
9.709131e-002
9.910569e-002
1.009086e-001
1.025193e-001
1.039526e-001
1.052188e-001
1.063233e-001
1.072676e-001
1.080487e-001
1.086596e-001
1.090895e-001
1.093230e-001
1.093402e-001
1.091158e-001
1.086180e-001
1.078075e-001
1.066362e-001
1.050459e-001
1.029678e-001
1.003231e-001
9.702548e-002
9.298743e-002
8.813069e-002
8.240283e-002
7.579927e-002
6.838872e-002
6.033606e-002
5.191329e-002
4.348778e-002
3.548095e-002
2.830088e-002
2.226522e-002
1.754039e-002
1.411983e-002
1.184865e-002
1.048181e-002
9.751358e-003
9.419820e-003
9.308164e-003
9.299626e-003
9.328337e-003
9.362808e-003
9.391207e-003
9.411145e-003
9.423860e-003
9.431421e-003
9.435665e-003
9.437921e-003
9.439056e-003
9.439591e-003
9.439824e-003
9.439913e-003
9.439940e-003
9.439942e-003
9.439937e-003
9.439931e-003
9.439927e-003
9.439924e-003
9.439922e-003
9.439921e-003
9.440033e-003
9.439962e-003
9.439773e-003
9.439352e-003
9.438481e-003
9.436771e-003
9.433563e-003
9.427810e-003
9.417948e-003
9.401869e-003
9.377212e-003
9.342498e-003
9.299989e-003
9.261637e-003
9.259404e-003
9.360092e-003
9.681818e-003
1.040523e-002
1.176957e-002
1.404525e-002
1.748230e-002
2.224621e-002
2.836271e-002
3.569347e-002
4.395367e-002
5.276502e-002
6.172450e-002
7.046658e-002
7.870442e-002
8.624595e-002
9.298939e-002
9.890688e-002
1.040239e-001
1.084000e-001
1.121127e-001
1.152461e-001
1.178822e-001
1.200968e-001
1.219569e-001
1.235199e-001
1.248340e-001
1.259391e-001
1.268677e-001
1.276459e-001
1.282945e-001
1.288300e-001
1.292652e-001
1.296095e-001
1.298699e-001
1.300504e-001
1.301527e-001
1.301751e-001
1.301128e-001
1.299562e-001
1.296902e-001
1.292919e-001
1.287284e-001
1.279532e-001
1.269017e-001
1.254863e-001
1.235908e-001
1.210653e-001
1.177257e-001
1.133594e-001
1.077464e-001
1.006997e-001
9.212789e-002
8.210991e-002
7.095715e-002
5.922804e-002
4.766625e-002
3.705978e-002
2.806100e-002
2.103890e-002
1.602573e-002
1.277187e-002
1.087000e-002
9.886691e-003
9.454913e-003
9.312701e-003
9.299194e-003
9.329342e-003
9.365291e-003
9.394054e-003
9.413604e-003
9.425669e-003
9.432615e-003
9.436387e-003
9.438325e-003
9.439265e-003
9.439690e-003
9.439866e-003
9.439927e-003
9.439942e-003
9.439940e-003
9.439934e-003
9.439929e-003
9.439926e-003
9.439923e-003
9.439922e-003
9.439967e-003
9.439833e-003
9.439486e-003
9.438741e-003
9.437243e-003
9.434364e-003
9.429069e-003
9.419750e-003
9.404130e-003
9.379474e-003
9.343703e-003
9.298613e-003
9.257245e-003
9.258025e-003
9.387363e-003
9.808430e-003
1.078631e-002
1.269138e-002
1.596027e-002
2.100428e-002
2.808105e-002
3.717455e-002
4.794096e-002
5.975530e-002
7.184599e-002
8.346240e-002
9.401216e-002
1.031309e-001
1.106829e-001
1.167133e-001
1.213829e-001
1.249066e-001
1.275096e-001
1.294006e-001
1.307577e-001
1.317240e-001
1.324088e-001
1.328926e-001
1.332331e-001
1.334712e-001
1.336357e-001
1.337473e-001
1.338211e-001
1.338683e-001
1.338973e-001
1.339142e-001
1.339237e-001
1.339291e-001
1.339323e-001
1.339344e-001
1.339353e-001
1.339338e-001
1.339278e-001
1.339137e-001
1.338865e-001
1.338388e-001
1.337607e-001
1.336374e-001
1.334483e-001
1.331626e-001
1.327335e-001
1.320885e-001
1.311123e-001
1.296220e-001
1.273371e-001
1.238591e-001
1.186911e-001
1.113327e-001
1.014604e-001
8.914602e-002
7.501017e-002
6.018812e-002
4.606673e-002
3.388523e-002
2.439237e-002
1.772211e-002
1.350889e-002
1.113289e-002
9.955664e-003
9.463639e-003
9.311625e-003
9.301078e-003
9.334189e-003
9.370833e-003
9.398799e-003
9.417067e-003