# vtk DataFile Version 3.0
vtk output
ASCII
DATASET STRUCTURED_POINTS
DIMENSIONS 100 100 1
SPACING 1 1 1
ORIGIN 0 0 0
POINT_DATA 10000
SCALARS SFBox_profile double
LOOKUP_TABLE default 
0.000000e+000
0.000000e+000
0.000000e+000
0.000000e+000
0.000000e+000
0.000000e+000
0.000000e+000
0.000000e+000
0.000000e+000
0.000000e+000
0.000000e+000
0.000000e+000
0.000000e+000
0.000000e+000
0.000000e+000
0.000000e+000
0.000000e+000
0.000000e+000
0.000000e+000
0.000000e+000
0.000000e+000
0.000000e+000
0.000000e+000
0.000000e+000
0.000000e+000
0.000000e+000
0.000000e+000
0.000000e+000
0.000000e+000
0.000000e+000
0.000000e+000
0.000000e+000
0.000000e+000
0.000000e+000
0.000000e+000
0.000000e+000
0.000000e+000
0.000000e+000
0.000000e+000
0.000000e+000
0.000000e+000
0.000000e+000
0.000000e+000
0.000000e+000
0.000000e+000
0.000000e+000
0.000000e+000
0.000000e+000
0.000000e+000
0.000000e+000
0.000000e+000
0.000000e+000
0.000000e+000
0.000000e+000
0.000000e+000
0.000000e+000
0.000000e+000
0.000000e+000
0.000000e+000
0.000000e+000
0.000000e+000
0.000000e+000
0.000000e+000
0.000000e+000
0.000000e+000
0.000000e+000
0.000000e+000
0.000000e+000
0.000000e+000
0.000000e+000
0.000000e+000
0.000000e+000
0.000000e+000
0.000000e+000
0.000000e+000
0.000000e+000
0.000000e+000
0.000000e+000
0.000000e+000
0.000000e+000
0.000000e+000
0.000000e+000
0.000000e+000
0.000000e+000
0.000000e+000
0.000000e+000
0.000000e+000
0.000000e+000
0.000000e+000
0.000000e+000
0.000000e+000
0.000000e+000
0.000000e+000
0.000000e+000
0.000000e+000
0.000000e+000
0.000000e+000
0.000000e+000
0.000000e+000
0.000000e+000
-5.114222e-009
-2.662549e-009
2.764117e-010
2.146011e-009
2.310883e-009
1.211107e-009
-1.610553e-010
-1.019168e-009
-1.195800e-009
-9.838381e-010
-6.782580e-010
-2.961055e-010
2.950531e-010
1.047278e-009
1.603201e-009
1.541576e-009
7.652782e-010
-3.623882e-010
-1.280618e-009
-1.645973e-009
-1.516606e-009
-1.174323e-009
-8.119089e-010
-4.071389e-010
1.356440e-010
7.843450e-010
1.355299e-009
1.675331e-009
1.731547e-009
1.648018e-009
1.537253e-009
1.402071e-009
1.180343e-009
8.536699e-010
4.852508e-010
1.559869e-010
-1.114220e-010
-3.526992e-010
-6.005916e-010
-8.433944e-010
-1.046046e-009
-1.195281e-009
-1.309989e-009
-1.411716e-009
-1.499913e-009
-1.561733e-009
-1.596243e-009
-1.617310e-009
-1.634122e-009
-1.640482e-009
-1.629086e-009
-1.608503e-009
-1.595084e-009
-1.588996e-009
-1.570368e-009
-1.526266e-009
-1.473119e-009
-1.438455e-009
-1.419680e-009
-1.376121e-009
-1.274072e-009
-1.131783e-009
-1.000091e-009
-8.927133e-010
-7.540691e-010
-5.176797e-010
-1.935019e-010
1.281450e-010
3.751840e-010
5.796200e-010
8.335759e-010
1.151856e-009
1.406445e-009
1.431419e-009
1.194368e-009
8.341112e-010
5.077571e-010
2.191088e-010
-1.603561e-010
-6.832739e-010
-1.168376e-009
-1.300357e-009
-9.178537e-010
-1.985269e-010
4.611751e-010
7.624263e-010
7.077062e-010
5.081431e-010
3.220172e-010
1.151246e-010
-2.173149e-010
-6.222179e-010
-8.316169e-010
-5.784544e-010
1.064305e-010
8.190615e-010
1.045848e-009
5.713185e-010
-3.139183e-010
-9.983196e-010
-1.033455e-009
-4.019713e-010
2.801631e-010
5.647523e-010
3.386205e-010
-1.359682e-010
-4.454647e-010
-3.485507e-010
5.133950e-011
4.154830e-010
4.601459e-010
1.773524e-010
-1.944214e-010
-4.004685e-010
-3.753092e-010
-2.415358e-010
-1.357439e-010
-6.161779e-011
7.943224e-011
3.329333e-010
5.974903e-010
7.014201e-010
5.650946e-010
2.723085e-010
-1.954025e-011
-2.242148e-010
-3.724686e-010
-5.285359e-010
-6.897514e-010
-7.838892e-010
-7.534963e-010
-6.194191e-010
-4.532509e-010
-3.009703e-010
-1.492719e-010
3.597259e-011
2.561032e-010
4.753021e-010
6.616541e-010
8.174845e-010
9.654002e-010
1.114943e-009
1.253161e-009
1.365149e-009
1.452637e-009
1.527483e-009
1.593742e-009
1.644835e-009
1.677257e-009
1.698100e-009
1.714453e-009
1.721329e-009
1.708291e-009
1.677024e-009
1.643029e-009
1.614811e-009
1.578073e-009
1.510702e-009
1.413085e-009
1.312022e-009
1.226667e-009
1.137867e-009
1.005698e-009
8.202341e-010
6.212467e-010
4.543775e-010
3.132834e-010
1.445007e-010
-8.101341e-011
-3.145269e-010
-4.675899e-010
-5.051936e-010
-4.822979e-010
-4.723985e-010
-4.692757e-010
-3.853902e-010
-1.609199e-010
1.394355e-010
3.619431e-010
4.035591e-010
3.047067e-010
1.925626e-010
1.401259e-010
1.005418e-010
-1.164307e-011
-1.895869e-010
-3.089261e-010
-2.462442e-010
-1.843465e-011
2.081476e-010
2.575355e-010
1.007351e-010
-1.193002e-010
-2.150385e-010
-1.149792e-010
8.343699e-011
2.058419e-010
1.502227e-010
-3.293798e-011
-1.889729e-010
3.739755e-009
2.112804e-009
8.209546e-011
-1.380359e-009
-1.812592e-009
-1.341029e-009
-4.185585e-010
5.146485e-010
1.189139e-009
1.460028e-009
1.231625e-009
4.984789e-010
-5.442058e-010
-1.493018e-009
-1.918037e-009
-1.618245e-009
-7.395245e-010
3.401913e-010
1.249014e-009
1.786836e-009
1.926018e-009
1.717285e-009
1.224907e-009
5.328765e-010
-2.342251e-010
-9.350647e-010
-1.467093e-009
-1.795723e-009
-1.932411e-009
-1.895992e-009
-1.700896e-009
-1.372440e-009
-9.554601e-010
-4.983170e-010
-3.117010e-011
4.354731e-010
8.938900e-010
1.328102e-009
1.721259e-009
2.068173e-009
2.374927e-009
2.647014e-009
2.882287e-009
3.076313e-009
3.230449e-009
3.351347e-009
3.444375e-009
3.511279e-009
3.554153e-009
3.577654e-009
3.585113e-009
3.575138e-009
3.545621e-009
3.500090e-009
3.445770e-009
3.383880e-009
3.305637e-009
3.201505e-009
3.072356e-009
2.926119e-009
2.762435e-009
2.566164e-009
2.320961e-009
2.026664e-009
1.696757e-009
1.338103e-009
9.411704e-010
4.974229e-010
2.376905e-011
-4.382035e-010
-8.481746e-010
-1.183286e-009
-1.422178e-009
-1.521503e-009
-1.426800e-009
-1.117730e-009
-6.384248e-010
-7.601313e-011
4.852402e-010
9.747431e-010
1.302312e-009
1.345309e-009
1.014869e-009
3.637400e-010
-3.787878e-010
-9.126213e-010
-1.044714e-009
-7.910706e-010
-3.250452e-010
1.589192e-010
5.319905e-010
7.162532e-010
6.441360e-010
2.891427e-010
-2.444148e-010
-6.948681e-010
-7.723872e-010
-3.791781e-010
2.686066e-010
7.552223e-010
5.407057e-009
2.731005e-009
-4.020646e-010
-2.275791e-009
-2.287404e-009
-1.047978e-009
3.100168e-010
1.010572e-009
1.014251e-009
7.289598e-010
4.663313e-010
1.941461e-010
-2.515371e-010
-8.163823e-010
-1.163630e-009
-9.730869e-010
-2.782071e-010
5.198701e-010
9.779928e-010
9.508288e-010
6.322936e-010
3.090351e-010
1.076258e-010
-3.153405e-011
-1.917048e-010
-3.462327e-010
-3.903920e-010
-2.678843e-010
-3.243303e-011
2.132254e-010
4.142372e-010
5.887342e-010
7.735484e-010
9.690212e-010
1.142301e-009
1.269468e-009
1.359162e-009
1.435719e-009
1.510586e-009
1.576240e-009
1.622664e-009
1.651409e-009
1.672072e-009
1.690223e-009
1.703185e-009
1.706791e-009
1.702646e-009
1.696925e-009
1.693222e-009
1.688819e-009
1.678943e-009
1.663669e-009
1.648586e-009
1.637748e-009
1.627710e-009
1.611483e-009
1.588719e-009
1.568121e-009
1.555983e-009
1.544331e-009
1.517115e-009
1.470849e-009
1.422555e-009
1.388424e-009
1.355924e-009
1.289163e-009
1.169892e-009
1.024600e-009
8.945401e-010
7.767816e-010
6.142826e-010
3.642158e-010
7.121514e-011
-1.532537e-010
-2.399349e-010
-2.346598e-010
-2.345698e-010
-2.497874e-010
-1.638346e-010
1.292895e-010
5.480937e-010
8.240036e-010
7.219165e-010
2.713854e-010
-2.397697e-010
-5.177547e-010
-5.057159e-010
-3.708113e-010
-2.686226e-010
-1.617298e-010
9.588495e-011
5.035786e-010
7.941502e-010
6.314699e-010
-3.304489e-011
-8.064493e-010
-1.105738e-009
-6.367506e-010
3.167407e-010
1.072151e-009
2.941387e-009
1.088381e-009
-8.628930e-010
-1.600598e-009
-8.734516e-010
4.726758e-010
1.253127e-009
8.873658e-010
-2.227324e-010
-1.132339e-009
-1.172821e-009
-4.316960e-010
4.612181e-010
9.481131e-010
9.491788e-010
7.392687e-010
5.321823e-010
2.588039e-010
-2.545830e-010
-9.648431e-010
-1.541012e-009
-1.629664e-009
-1.163942e-009
-3.934382e-010
3.678608e-010
9.892677e-010
1.529632e-009
2.055715e-009
2.511124e-009
2.770456e-009
2.782337e-009
2.622563e-009
2.409932e-009
2.198107e-009
1.962146e-009
1.671049e-009
1.345614e-009
1.040149e-009
7.860843e-010
5.704147e-010
3.662449e-010
1.693803e-010
-1.871603e-012
-1.344309e-010
-2.361902e-010
-3.229649e-010
-3.984077e-010
-4.537917e-010
-4.851289e-010
-5.023399e-010
-5.175880e-010
-5.292215e-010
-5.246241e-010
-4.997296e-010
-4.682617e-010
-4.448074e-010
-4.218190e-010
-3.738928e-010
-2.895702e-010
-1.899926e-010
-1.031930e-010
-2.049145e-011
1.053708e-010
3.062990e-010
5.521409e-010
7.791046e-010
9.700158e-010
1.183933e-009
1.480138e-009
1.816597e-009
2.056148e-009
2.095425e-009
1.970564e-009
1.799825e-009
1.616755e-009
1.301732e-009
7.252221e-010
-4.165653e-011
-7.062312e-010
-9.857324e-010
-8.588063e-010
-5.600716e-010
-3.202806e-010
-1.453496e-010
1.142925e-010
4.912353e-010
7.607967e-010
6.311877e-010
8.314082e-011
-5.187800e-010
-7.054259e-010
-3.280824e-010
2.846131e-010
6.042841e-010
3.667446e-010
-2.005726e-010
-5.880247e-010
-4.544400e-010
8.083432e-011
5.510700e-010
-1.365799e-009
-1.206775e-009
-7.594331e-010
3.981431e-011
9.791476e-010
1.576738e-009
1.361280e-009
2.720342e-010
-1.156214e-009
-2.061332e-009
-1.842977e-009
-6.130998e-010
8.856794e-010
1.835296e-009
1.892327e-009
1.285745e-009
4.665227e-010
-2.825463e-010
-9.149411e-010
-1.408163e-009
-1.605664e-009
-1.323782e-009
-5.806926e-010
3.486245e-010
1.136098e-009
1.645035e-009
1.962497e-009
2.219429e-009
2.424998e-009
2.488705e-009
2.365962e-009
2.134285e-009
1.918296e-009
1.769296e-009
1.641785e-009
1.476341e-009
1.276329e-009
1.093919e-009
9.607691e-010
8.554916e-010
7.390836e-010
6.036584e-010
4.745153e-010
3.725130e-010
2.900923e-010
2.077141e-010
1.224127e-010
4.924386e-011
-2.545489e-012
-4.264048e-011
-8.334528e-011
-1.178765e-010
-1.262183e-010
-1.031240e-010
-6.888306e-011
-4.331429e-011
-1.516539e-011
4.782773e-011
1.541675e-010
2.677036e-010
3.469658e-010
4.012742e-010
4.865708e-010
6.341662e-010
8.000203e-010
9.110723e-010
9.636255e-010
1.046685e-009
1.242254e-009
1.513852e-009
1.728933e-009
1.804071e-009
1.797057e-009
1.817321e-009
1.850396e-009
1.719820e-009
1.262510e-009
5.320137e-010
-2.097508e-010
-7.143428e-010
-9.335990e-010
-9.669103e-010
-8.577738e-010
-5.149753e-010
1.209047e-010
8.617551e-010
1.298738e-009
1.109350e-009
3.608057e-010
-4.991684e-010
-9.713009e-010
-8.576857e-010
-3.454402e-010
1.990702e-010
5.022616e-010
5.044647e-010
3.020415e-010
3.029769e-011
-2.052378e-010
-3.389436e-010
-4.206332e-009
-2.200369e-009
1.328794e-010
1.553686e-009
1.691363e-009
9.903308e-010
1.305874e-010
-4.906572e-010
-8.175007e-010
-8.768313e-010
-6.221999e-010
-6.063267e-011
5.684466e-010
8.738714e-010
6.366525e-010
3.679243e-011
-4.809327e-010
-5.776100e-010
-2.562073e-010
2.385916e-010
6.905454e-010
1.046437e-009
1.324260e-009
1.479311e-009
1.420995e-009
1.144637e-009
7.879398e-010
5.256749e-010
4.245505e-010
4.238487e-010
4.460000e-010
4.906065e-010
6.066883e-010
7.989765e-010
9.958495e-010
1.114082e-009
1.132842e-009
1.089340e-009
1.014203e-009
8.931693e-010
6.954068e-010
4.213567e-010
1.070227e-010
-2.142008e-010
-5.382737e-010
-8.746588e-010
-1.215731e-009
-1.534424e-009
-1.809773e-009
-2.041480e-009
-2.232726e-009
-2.367633e-009
-2.418891e-009
-2.378086e-009
-2.265547e-009
-2.101391e-009
-1.875290e-009
-1.561173e-009
-1.164599e-009
-7.395772e-010
-3.439587e-010
1.453281e-011
3.671916e-010
7.142798e-010
9.877617e-010
1.108178e-009
1.075177e-009
9.749423e-010
8.848538e-010
7.922747e-010
6.373207e-010
4.315640e-010
2.947579e-010
3.441584e-010
5.608156e-010
7.988041e-010
9.307097e-010
9.510008e-010
9.148204e-010
8.087314e-010
5.461885e-010
1.166192e-010
-3.039464e-010
-4.569905e-010
-2.423959e-010
1.656880e-010
4.661497e-010
4.869164e-010
2.830632e-010
8.528191e-012
-2.471254e-010
-4.596971e-010
-5.534093e-010
-3.826832e-010
9.711127e-011
6.566769e-010
8.784369e-010
5.038676e-010
-2.745610e-010
-9.019334e-010
-4.004363e-009
-1.358376e-009
1.308882e-009
2.142455e-009
9.810097e-010
-8.095555e-010
-1.644287e-009
-9.952915e-010
3.986679e-010
1.378739e-009
1.358193e-009
5.978655e-010
-2.794168e-010
-8.843223e-010
-1.190590e-009
-1.248612e-009
-9.596302e-010
-1.978287e-010
9.186797e-010
1.987226e-009
2.593039e-009
2.605722e-009
2.203810e-009
1.653695e-009
1.111347e-009
6.206738e-010
2.219778e-010
-1.135829e-011
-4.578827e-011
5.017408e-011
1.475693e-010
1.499881e-010
2.652932e-011
-2.360558e-010
-6.798519e-010
-1.356469e-009
-2.275260e-009
-3.392689e-009
-4.654967e-009
-6.036122e-009
-7.527015e-009
-9.099640e-009
-1.069903e-008
-1.227128e-008
-1.378698e-008
-1.523033e-008
-1.657340e-008
-1.777299e-008
-1.879182e-008
-1.961112e-008
-2.021630e-008
-2.057864e-008
-2.066336e-008
-2.045563e-008
-1.996707e-008
-1.921071e-008
-1.817991e-008
-1.686669e-008
-1.530107e-008
-1.355753e-008
-1.171375e-008
-9.813686e-009
-7.887025e-009
-6.001337e-009
-4.270989e-009
-2.798074e-009
-1.614270e-009
-6.987039e-010
-4.631446e-011
3.129735e-010
3.810680e-010
2.567124e-010
9.858752e-011
1.804399e-011
3.457212e-011
1.472340e-010
4.082232e-010
8.653169e-010
1.421418e-009
1.810034e-009
1.779541e-009
1.317427e-009
6.614111e-010
7.522162e-011
-3.534708e-010
-6.645454e-010
-8.203831e-010
-6.540668e-010
-9.496342e-011
5.886851e-010
8.907258e-010
5.133327e-010
-2.759961e-010
-8.031737e-010
-5.854866e-010
1.917367e-010
8.125802e-010
6.882748e-010
-8.249385e-011
-7.950119e-010
-1.642997e-009
2.070424e-010
1.775858e-009
1.606853e-009
-1.738590e-010
-2.041907e-009
-2.398806e-009
-9.106968e-010
1.269129e-009
2.523371e-009
2.083318e-009
4.975623e-010
-1.022746e-009
-1.641413e-009
-1.364974e-009
-6.915576e-010
3.511783e-013
6.669541e-010
1.345946e-009
1.889155e-009
2.044671e-009
1.756464e-009
1.284241e-009
9.885119e-010
1.025486e-009
1.269151e-009
1.487124e-009
1.529495e-009
1.340974e-009
8.529163e-010
-6.886130e-011
-1.559384e-009
-3.670772e-009
-6.370740e-009
-9.604486e-009
-1.333196e-008
-1.750721e-008
-2.204827e-008
-2.684579e-008
-3.179609e-008
-3.681437e-008
-4.181914e-008
-4.671906e-008
-5.142270e-008
-5.585433e-008
-5.995193e-008
-6.365234e-008
-6.688679e-008
-6.959179e-008
-7.171628e-008
-7.321318e-008
-7.403005e-008
-7.411704e-008
-7.344375e-008
-7.200098e-008
-6.978605e-008
-6.679831e-008
-6.306072e-008
-5.864335e-008
-5.365532e-008
-4.821383e-008
-4.243443e-008
-3.645821e-008
-3.047291e-008
-2.468282e-008
-1.925246e-008
-1.429417e-008
-9.914473e-009
-6.243370e-009
-3.381117e-009
-1.313778e-009
8.436206e-011
9.431744e-010
1.317414e-009
1.255408e-009
9.376086e-010
6.764795e-010
7.118770e-010
1.007131e-009
1.297651e-009
1.363943e-009
1.221191e-009
1.007444e-009
7.320914e-010
2.430012e-010
-4.963600e-010
-1.158976e-009
-1.220338e-009
-4.686990e-010
6.621336e-010
1.356393e-009
1.097671e-009
1.299389e-010
-7.555350e-010
-9.128190e-010
-3.673174e-010
2.877464e-010
4.806798e-010
1.632691e-010
-2.199387e-010
1.001797e-009
1.072510e-009
8.858730e-010
2.240420e-010
-7.355960e-010
-1.416564e-009
-1.245993e-009
-2.018192e-010
1.017839e-009
1.484008e-009
8.333881e-010
-3.700723e-010
-1.104081e-009
-7.765671e-010
3.060537e-010
1.303377e-009
1.615809e-009
1.297597e-009
8.039358e-010
4.771384e-010
3.440673e-010
3.262132e-010
4.791907e-010
9.286219e-010
1.607139e-009
2.145542e-009
2.059810e-009
1.017849e-009
-1.091558e-009
-4.301773e-009
-8.706087e-009
-1.443284e-008
-2.152505e-008
-2.988787e-008
-3.935230e-008
-4.975916e-008
-6.096958e-008
-7.281849e-008
-8.509016e-008
-9.754699e-008
-1.099711e-007
-1.221745e-007
-1.339821e-007
-1.452204e-007
-1.557239e-007
-1.653443e-007
-1.739490e-007
-1.814142e-007
-1.876208e-007
-1.924536e-007
-1.958004e-007
-1.975555e-007
-1.976285e-007
-1.959504e-007
-1.924715e-007
-1.871619e-007
-1.800294e-007
-1.711452e-007
-1.606494e-007
-1.487294e-007
-1.356043e-007
-1.215449e-007
-1.069041e-007
-9.209819e-008
-7.753110e-008
-6.353794e-008
-5.041086e-008
-3.846034e-008
-2.799759e-008
-1.921767e-008
-1.211455e-008
-6.555023e-009
-2.444173e-009
2.270248e-010
1.536517e-009
1.803496e-009
1.531094e-009
1.136994e-009
7.677979e-010
4.108075e-010
1.441159e-010
1.735987e-010
5.719261e-010
1.051632e-009
1.129716e-009
5.925430e-010
-2.302846e-010
-7.207740e-010
-5.307336e-010
1.151411e-010
6.565876e-010
7.027500e-010
3.065742e-010
-1.863634e-010
-4.738168e-010
-4.779874e-010
-2.874205e-010
-2.316691e-011
2.197575e-010
3.660367e-010
2.789178e-009
8.748118e-010
-9.626877e-010
-1.422736e-009
-5.548787e-010
5.960235e-010
1.066963e-009
6.911828e-010
-7.011531e-011
-7.256897e-010
-1.056307e-009
-9.723263e-010
-3.642601e-010
7.340829e-010
1.913204e-009
2.529322e-009
2.214538e-009
1.238730e-009
3.052415e-010
-2.790088e-011
2.767917e-010
8.652056e-010
1.356962e-009
1.498589e-009
1.010660e-009
-5.734513e-010
-3.820438e-009
-9.159185e-009
-1.677607e-008
-2.673855e-008
-3.915948e-008
-5.419554e-008
-7.190157e-008
-9.212911e-008
-1.145743e-007
-1.388924e-007
-1.647429e-007
-1.917474e-007
-2.194501e-007
-2.473505e-007
-2.749753e-007
-3.019160e-007
-3.278114e-007
-3.523175e-007
-3.751030e-007
-3.958671e-007
-4.143489e-007
-4.303148e-007
-4.435370e-007
-4.537823e-007
-4.608199e-007
-4.644390e-007
-4.644597e-007
-4.607302e-007
-4.531248e-007
-4.415631e-007
-4.260541e-007
-4.067292e-007
-3.838370e-007
-3.577161e-007
-3.287999e-007
-2.976649e-007
-2.650577e-007
-2.318343e-007
-1.988391e-007
-1.668378e-007
-1.365512e-007
-1.086941e-007
-8.389393e-008
-6.252104e-008
-4.461503e-008
-3.001571e-008
-1.856152e-008
-1.012181e-008
-4.435801e-009
-9.953086e-010
8.286576e-010
1.533990e-009
1.416842e-009
7.685785e-010
5.860714e-011
-2.015572e-010
1.776143e-010
8.908961e-010
1.400842e-009
1.389261e-009
9.448813e-010
3.600884e-010
-1.523030e-010
-5.027874e-010
-5.966356e-010
-3.355632e-010
1.848876e-010
5.860020e-010
4.809120e-010
-9.871485e-011
-6.323730e-010
-5.806914e-010
4.797734e-011
6.605268e-010
3.588032e-009
3.453156e-010
-2.485780e-009
-2.550955e-009
-1.813334e-010
2.272660e-009
2.722709e-009
1.056720e-009
-1.126873e-009
-2.168905e-009
-1.652652e-009
-3.250984e-010
8.816690e-010
1.566915e-009
1.795254e-009
1.695916e-009
1.346565e-009
9.561520e-010
8.992526e-010
1.399327e-009
2.189129e-009
2.554271e-009
1.710973e-009
-9.074987e-010
-5.719696e-009
-1.323787e-008
-2.414080e-008
-3.910722e-008
-5.864107e-008
-8.307767e-008
-1.126874e-007
-1.476742e-007
-1.880305e-007
-2.334128e-007
-2.831771e-007
-3.365230e-007
-3.925953e-007
-4.504844e-007
-5.092061e-007
-5.677492e-007
-6.251730e-007
-6.806679e-007
-7.335392e-007
-7.831587e-007
-8.289456e-007
-8.703826e-007
-9.070259e-007
-9.384815e-007
-9.643642e-007
-9.842751e-007
-9.978148e-007
-1.004612e-006
-1.004335e-006
-9.966874e-007
-9.814072e-007
-9.583098e-007
-9.273581e-007
-8.887116e-007
-8.427252e-007
-7.899356e-007
-7.310974e-007
-6.672595e-007
-5.997918e-007
-5.302927e-007
-4.604386e-007
-3.918960e-007
-3.263185e-007
-2.653057e-007
-2.102210e-007
-1.619589e-007
-1.208655e-007
-8.687626e-008
-5.969483e-008
-3.881955e-008
-2.346912e-008
-1.263642e-008
-5.343201e-009
-8.646513e-010
1.330657e-009
1.844350e-009
1.460819e-009
9.275379e-010
6.453578e-010
6.325519e-010
7.738333e-010
1.006992e-009
1.230560e-009
1.166806e-009
5.410997e-010
-5.032750e-010
-1.292193e-009
-1.138432e-009
-7.208952e-011
1.032333e-009
1.209336e-009
3.441125e-010
-6.896393e-010
-8.973022e-010
-1.649435e-010
6.523755e-010
3.368083e-009
2.048521e-010
-2.502832e-009
-2.443863e-009
-3.138831e-011
2.288429e-009
2.436498e-009
5.257529e-010
-1.499377e-009
-1.842602e-009
-4.326139e-010
1.300029e-009
1.953570e-009
1.352054e-009
3.918407e-010
1.174512e-011
4.615621e-010
1.406587e-009
2.399890e-009
3.041759e-009
2.755717e-009
6.288373e-010
-4.414336e-009
-1.334218e-008
-2.701073e-008
-4.640911e-008
-7.281129e-008
-1.076164e-007
-1.520279e-007
-2.068519e-007
-2.724773e-007
-3.488804e-007
-4.355424e-007
-5.313699e-007
-6.347635e-007
-7.438261e-007
-8.565648e-007
-9.709876e-007
-1.085140e-006
-1.197174e-006
-1.305455e-006
-1.408624e-006
-1.505574e-006
-1.595376e-006
-1.677230e-006
-1.750460e-006
-1.814505e-006
-1.868879e-006
-1.913105e-006
-1.946677e-006
-1.969076e-006
-1.979789e-006
-1.978324e-006
-1.964196e-006
-1.936935e-006
-1.896142e-006
-1.841587e-006
-1.773278e-006
-1.691486e-006
-1.596774e-006
-1.490093e-006
-1.372906e-006
-1.247244e-006
-1.115630e-006
-9.809514e-007
-8.463659e-007
-7.152257e-007
-5.908901e-007
-4.763783e-007
-3.740132e-007
-2.852563e-007
-2.107416e-007
-1.503368e-007
-1.031381e-007
-6.753888e-008
-4.154328e-008
-2.322381e-008
-1.099240e-008
-3.521985e-009
4.532230e-010
2.125923e-009
2.403831e-009
1.839299e-009
8.711113e-010
6.959883e-011
-3.031123e-011
5.910965e-010
1.266775e-009
1.182605e-009
2.061877e-010
-8.829272e-010
-1.107413e-009
-2.733990e-010
8.080817e-010
1.118688e-009
4.346967e-010
-4.961500e-010
-7.606510e-010
-2.090194e-010
4.499525e-010
1.707832e-009
3.180312e-010
-8.964970e-010
-9.331771e-010
3.933541e-012
7.934130e-010
5.469740e-010
-4.614945e-010
-1.041008e-009
-3.119461e-010
1.320054e-009
2.485507e-009
2.182131e-009
7.630537e-010
-4.093468e-010
-2.443892e-010
1.151131e-009
2.670486e-009
3.063928e-009
1.449052e-009
-2.926815e-009
-1.119756e-008
-2.505096e-008
-4.652264e-008
-7.780952e-008
-1.213091e-007
-1.796490e-007
-2.554081e-007
-3.505844e-007
-4.661512e-007
-6.019125e-007
-7.565728e-007
-9.278347e-007
-1.112507e-006
-1.306729e-006
-1.506342e-006
-1.707266e-006
-1.905757e-006
-2.098518e-006
-2.282768e-006
-2.456306e-006
-2.617514e-006
-2.765275e-006
-2.898841e-006
-3.017718e-006
-3.121606e-006
-3.210356e-006
-3.283894e-006
-3.342137e-006
-3.384934e-006
-3.412058e-006
-3.423204e-006
-3.417972e-006
-3.395831e-006
-3.356107e-006
-3.298033e-006
-3.220832e-006
-3.123805e-006
-3.006385e-006
-2.868253e-006
-2.709528e-006
-2.531025e-006
-2.334442e-006
-2.122455e-006
-1.898772e-006
-1.668151e-006
-1.436308e-006
-1.209555e-006
-9.941914e-007
-7.958674e-007
-6.191076e-007
-4.669854e-007
-3.408548e-007
-2.402016e-007
-1.628403e-007
-1.055261e-007
-6.468566e-008
-3.686949e-008
-1.886659e-008
-7.796461e-009
-1.389891e-009
1.785717e-009
2.548172e-009
1.693748e-009
3.521388e-010
-3.508910e-010
2.735098e-012
8.724988e-010
1.338932e-009
9.804528e-010
1.849219e-010
-3.446411e-010
-2.947984e-010
6.203255e-011
2.667620e-010
1.503576e-010
-8.825358e-011
-1.763093e-010
-5.764637e-011
9.481961e-011
-1.474132e-009
4.677965e-011
1.324476e-009
1.292137e-009
1.701847e-010
-1.009476e-009
-1.419421e-009
-9.407078e-010
7.460520e-011
1.191330e-009
1.991285e-009
2.104278e-009
1.486453e-009
6.936376e-010
6.017517e-010
1.583856e-009
2.896218e-009
2.918756e-009
-3.461273e-011
-7.262592e-009
-2.008563e-008
-4.066695e-008
-7.242624e-008
-1.197642e-007
-1.874937e-007
-2.804038e-007
-4.029113e-007
-5.584953e-007
-7.488965e-007
-9.734510e-007
-1.228921e-006
-1.509828e-006
-1.809022e-006
-2.118324e-006
-2.429211e-006
-2.733568e-006
-3.024353e-006
-3.296015e-006
-3.544611e-006
-3.767729e-006
-3.964312e-006
-4.134432e-006
-4.279001e-006
-4.399479e-006
-4.497630e-006
-4.575385e-006
-4.634745e-006
-4.677694e-006
-4.706111e-006
-4.721692e-006
-4.725898e-006
-4.719882e-006
-4.704388e-006
-4.679620e-006
-4.645124e-006
-4.599722e-006
-4.541483e-006
-4.467716e-006
-4.375017e-006
-4.259431e-006
-4.116815e-006
-3.943347e-006
-3.736119e-006
-3.493788e-006
-3.217263e-006
-2.910320e-006
-2.579876e-006
-2.235679e-006
-1.889441e-006
-1.553635e-006
-1.240180e-006
-9.590959e-007
-7.172964e-007
-5.178536e-007
-3.600958e-007
-2.404758e-007
-1.536967e-007
-9.360227e-008
-5.381495e-008
-2.841716e-008
-1.270137e-008
-3.552669e-009
9.042203e-010
2.109623e-009
1.579170e-009
7.218506e-010
3.450490e-010
5.045513e-010
8.562055e-010
1.082653e-009
1.021030e-009
6.081786e-010
-6.609984e-011
-6.570264e-010
-7.332927e-010
-2.117557e-010
4.376160e-010
5.918788e-010
1.323781e-010
-4.016854e-010
-4.960100e-009
-7.484579e-010
2.866665e-009
2.996751e-009
3.539203e-010
-2.077593e-009
-2.161024e-009
-3.156024e-010
1.499133e-009
1.936708e-009
1.250215e-009
5.570980e-010
6.430911e-010
1.531847e-009
2.756808e-009
3.562034e-009
2.755363e-009
-1.399852e-009
-1.102948e-008
-2.861291e-008
-5.748782e-008
-1.026385e-007
-1.710072e-007
-2.708982e-007
-4.107687e-007
-5.979607e-007
-8.375525e-007
-1.131175e-006
-1.475834e-006
-1.863209e-006
-2.279949e-006
-2.709019e-006
-3.131648e-006
-3.529357e-006
-3.885759e-006
-4.187979e-006
-4.427553e-006
-4.600677e-006
-4.707833e-006
-4.752982e-006
-4.742627e-006
-4.684894e-006
-4.588727e-006
-4.463269e-006
-4.317449e-006
-4.159804e-006
-3.998434e-006
-3.841021e-006
-3.694843e-006
-3.566744e-006
-3.463037e-006
-3.389316e-006
-3.350171e-006
-3.348817e-006
-3.386675e-006
-3.462931e-006
-3.574100e-006
-3.713625e-006
-3.871591e-006
-4.034712e-006
-4.186707e-006
-4.309150e-006
-4.382818e-006
-4.389607e-006
-4.314905e-006
-4.150097e-006
-3.894584e-006
-3.556727e-006
-3.153430e-006
-2.708353e-006
-2.248925e-006
-1.802525e-006
-1.392587e-006
-1.035700e-006
-7.404655e-007
-5.081268e-007
-3.342001e-007
-2.103655e-007
-1.263353e-007
-7.169705e-008
-3.748597e-008
-1.697978e-008
-5.533804e-009
8.093443e-011
2.178276e-009
2.330801e-009
1.541927e-009
5.753625e-010
1.118364e-010
4.512666e-010
1.145958e-009
1.277769e-009
3.968543e-010
-8.470671e-010
-1.257998e-009
-3.925333e-010
8.517557e-010
1.147016e-009
2.028747e-010
-8.912490e-010
-6.566832e-009
-1.360567e-009
3.065085e-009
3.218750e-009
1.958687e-010
-2.191178e-009
-1.547333e-009
1.028842e-009
2.678430e-009
1.981353e-009
1.616282e-010
-5.537772e-010
7.349740e-010
2.939238e-009
4.093723e-009
2.537761e-009
-3.123086e-009
-1.497736e-008
-3.667599e-008
-7.381822e-008
-1.341886e-007
-2.279952e-007
-3.676092e-007
-5.662074e-007
-8.353158e-007
-1.181825e-006
-1.605076e-006
-2.094455e-006
-2.628037e-006
-3.173055e-006
-3.688706e-006
-4.130964e-006
-4.458228e-006
-4.636393e-006
-4.642420e-006
-4.466054e-006
-4.109771e-006
-3.587218e-006
-2.920594e-006
-2.137596e-006
-1.268508e-006
-3.438499e-007
6.072828e-007
1.558162e-006
2.484748e-006
3.365530e-006
4.181072e-006
4.913469e-006
5.545880e-006
6.062245e-006
6.447265e-006
6.686644e-006
6.767577e-006
6.679482e-006
6.414965e-006
5.971001e-006
5.350300e-006
4.562803e-006
3.627137e-006
2.571791e-006
1.435667e-006
2.676584e-007
-8.751724e-007
-1.931190e-006
-2.839652e-006
-3.547567e-006
-4.016836e-006
-4.230277e-006
-4.195107e-006
-3.942743e-006
-3.524333e-006
-3.002484e-006
-2.441008e-006
-1.895359e-006
-1.406200e-006
-9.970810e-007
-6.757068e-007
-4.375232e-007
-2.703250e-007
-1.587904e-007
-8.797473e-008
-4.521054e-008
-2.063969e-008
-7.145548e-009
-1.876828e-010
2.646371e-009
2.655846e-009
1.164693e-009
-1.782774e-010
-2.183387e-010
7.920746e-010
1.495389e-009
9.112190e-010
-4.440903e-010
-1.115077e-009
-3.784072e-010
8.885352e-010
1.191146e-009
1.444468e-010
-1.070700e-009
-4.839109e-009
-1.004359e-009
2.088398e-009
1.922172e-009
-3.454645e-010
-1.617193e-009
-3.302805e-010
2.064708e-009
2.995568e-009
1.703073e-009
-3.255120e-011
1.803567e-011
2.047446e-009
3.847150e-009
2.468686e-009
-4.349015e-009
-1.871208e-008
-4.457512e-008
-8.946935e-008
-1.649515e-007
-2.861084e-007
-4.706543e-007
-7.372431e-007
-1.102000e-006
-1.572861e-006
-2.142612e-006
-2.782562e-006
-3.439037e-006
-4.034570e-006
-4.474674e-006
-4.659564e-006
-4.498411e-006
-3.922623e-006
-2.895032e-006
-1.413369e-006
4.917536e-007
2.762970e-006
5.324608e-006
8.091739e-006
1.097836e-005
1.390370e-005
1.679612e-005
1.959496e-005
2.225045e-005
2.472258e-005
2.697915e-005
2.899371e-005
3.074344e-005
3.220743e-005
3.336540e-005
3.419697e-005
3.468130e-005
3.479730e-005
3.452411e-005
3.384227e-005
3.273542e-005
3.119284e-005
2.921280e-005
2.680675e-005
2.400414e-005
2.085716e-005
1.744475e-005
1.387429e-005
1.027959e-005
6.813658e-006
3.635760e-006
8.937497e-007
-1.295804e-006
-2.865686e-006
-3.809614e-006
-4.183359e-006
-4.093819e-006
-3.678263e-006
-3.079272e-006
-2.422092e-006
-1.799722e-006
-1.267883e-006
-8.487960e-007
-5.404053e-007
-3.269518e-007
-1.876015e-007
-1.017490e-007
-5.159630e-008
-2.337703e-008
-7.904171e-009
-1.320297e-010
2.478816e-009
1.912486e-009
4.299172e-010
-1.450721e-010
5.066170e-010
1.307047e-009
1.166439e-009
1.986942e-010
-5.215714e-010
-2.783766e-010
4.703343e-010
6.984138e-010
6.050395e-011
-7.126157e-010
-4.598526e-010
2.127576e-010
4.769948e-010
-7.887035e-011
-7.553232e-010
-5.109233e-010
7.865110e-010
2.075293e-009
2.231993e-009
1.413543e-009
9.977739e-010
1.976700e-009
3.403531e-009
2.444453e-009
-4.313679e-009
-2.023136e-008
-5.000581e-008
-1.023450e-007
-1.919390e-007