# vtk DataFile Version 3.0
vtk output
ASCII
DATASET STRUCTURED_POINTS
DIMENSIONS 100 100 1
SPACING 1 1 1
ORIGIN 0 0 0
POINT_DATA 10000
SCALARS SFBox_profile double
LOOKUP_TABLE default 
9.439917e-003
9.439917e-003
9.439918e-003
9.439919e-003
9.439920e-003
9.439922e-003
9.439924e-003
9.439927e-003
9.439930e-003
9.439935e-003
9.439941e-003
9.439948e-003
9.439955e-003
9.439963e-003
9.439971e-003
9.439977e-003
9.439980e-003
9.439976e-003
9.439965e-003
9.439942e-003
9.439903e-003
9.439846e-003
9.439768e-003
9.439666e-003
9.439538e-003
9.439383e-003
9.439201e-003
9.438994e-003
9.438763e-003
9.438511e-003
9.438242e-003
9.437958e-003
9.437663e-003
9.437362e-003
9.437057e-003
9.436751e-003
9.436448e-003
9.436150e-003
9.435858e-003
9.435575e-003
9.435300e-003
9.435036e-003
9.434783e-003
9.434540e-003
9.434309e-003
9.434090e-003
9.433882e-003
9.433688e-003
9.433509e-003
9.433346e-003
9.433201e-003
9.433078e-003
9.432980e-003
9.432910e-003
9.432874e-003
9.432876e-003
9.432920e-003
9.433011e-003
9.433152e-003
9.433346e-003
9.433595e-003
9.433898e-003
9.434254e-003
9.434658e-003
9.435102e-003
9.435578e-003
9.436075e-003
9.436580e-003
9.437080e-003
9.437562e-003
9.438012e-003
9.438422e-003
9.438783e-003
9.439091e-003
9.439344e-003
9.439544e-003
9.439696e-003
9.439805e-003
9.439879e-003
9.439925e-003
9.439950e-003
9.439961e-003
9.439962e-003
9.439958e-003
9.439952e-003
9.439945e-003
9.439938e-003
9.439933e-003
9.439929e-003
9.439926e-003
9.439924e-003
9.439922e-003
9.439921e-003
9.439921e-003
9.439921e-003
9.439921e-003
9.439920e-003
9.439921e-003
9.439921e-003
9.439921e-003
9.439917e-003
9.439917e-003
9.439918e-003
9.439919e-003
9.439920e-003
9.439922e-003
9.439924e-003
9.439927e-003
9.439930e-003
9.439935e-003
9.439941e-003
9.439948e-003
9.439955e-003
9.439963e-003
9.439971e-003
9.439977e-003
9.439980e-003
9.439976e-003
9.439965e-003
9.439942e-003
9.439903e-003
9.439846e-003
9.439768e-003
9.439666e-003
9.439538e-003
9.439383e-003
9.439201e-003
9.438994e-003
9.438763e-003
9.438511e-003
9.438242e-003
9.437958e-003
9.437663e-003
9.437362e-003
9.437057e-003
9.436751e-003
9.436448e-003
9.436150e-003
9.435858e-003
9.435575e-003
9.435300e-003
9.435036e-003
9.434783e-003
9.434540e-003
9.434309e-003
9.434090e-003
9.433882e-003
9.433688e-003
9.433509e-003
9.433346e-003
9.433201e-003
9.433078e-003
9.432980e-003
9.432910e-003
9.432874e-003
9.432876e-003
9.432920e-003
9.433011e-003
9.433152e-003
9.433346e-003
9.433595e-003
9.433898e-003
9.434254e-003
9.434658e-003
9.435102e-003
9.435578e-003
9.436075e-003
9.436580e-003
9.437080e-003
9.437562e-003
9.438012e-003
9.438422e-003
9.438783e-003
9.439091e-003
9.439344e-003
9.439544e-003
9.439696e-003
9.439805e-003
9.439879e-003
9.439925e-003
9.439950e-003
9.439961e-003
9.439962e-003
9.439958e-003
9.439952e-003
9.439945e-003
9.439938e-003
9.439933e-003
9.439929e-003
9.439926e-003
9.439924e-003
9.439922e-003
9.439921e-003
9.439921e-003
9.439921e-003
9.439921e-003
9.439920e-003
9.439921e-003
9.439921e-003
9.439921e-003
9.439918e-003
9.439918e-003
9.439919e-003
9.439920e-003
9.439921e-003
9.439923e-003
9.439926e-003
9.439929e-003
9.439934e-003
9.439939e-003
9.439945e-003
9.439952e-003
9.439959e-003
9.439965e-003
9.439967e-003
9.439964e-003
9.439951e-003
9.439925e-003
9.439881e-003
9.439812e-003
9.439714e-003
9.439581e-003
9.439407e-003
9.439191e-003
9.438928e-003
9.438619e-003
9.438265e-003
9.437869e-003
9.437434e-003
9.436968e-003
9.436474e-003
9.435961e-003
9.435434e-003
9.434900e-003
9.434364e-003
9.433832e-003
9.433308e-003
9.432795e-003
9.432297e-003
9.431815e-003
9.431352e-003
9.430907e-003
9.430483e-003
9.430078e-003
9.429695e-003
9.429332e-003
9.428990e-003
9.428672e-003
9.428379e-003
9.428113e-003
9.427879e-003
9.427681e-003
9.427524e-003
9.427414e-003
9.427360e-003
9.427367e-003
9.427444e-003
9.427598e-003
9.427834e-003
9.428159e-003
9.428575e-003
9.429082e-003
9.429679e-003
9.430357e-003
9.431109e-003
9.431918e-003
9.432769e-003
9.433640e-003
9.434510e-003
9.435357e-003
9.436158e-003
9.436897e-003
9.437557e-003
9.438130e-003
9.438611e-003
9.439002e-003
9.439307e-003
9.439536e-003
9.439701e-003
9.439812e-003
9.439883e-003
9.439924e-003
9.439944e-003
9.439951e-003
9.439951e-003
9.439947e-003
9.439941e-003
9.439936e-003
9.439931e-003
9.439928e-003
9.439925e-003
9.439923e-003
9.439922e-003
9.439921e-003
9.439921e-003
9.439921e-003
9.439921e-003
9.439920e-003
9.439920e-003
9.439920e-003
9.439919e-003
9.439919e-003
9.439920e-003
9.439922e-003
9.439924e-003
9.439926e-003
9.439930e-003
9.439935e-003
9.439940e-003
9.439947e-003
9.439953e-003
9.439959e-003
9.439961e-003
9.439958e-003
9.439943e-003
9.439911e-003
9.439854e-003
9.439762e-003
9.439626e-003
9.439432e-003
9.439170e-003
9.438830e-003
9.438402e-003
9.437882e-003
9.437266e-003
9.436555e-003
9.435756e-003
9.434874e-003
9.433923e-003
9.432913e-003
9.431858e-003
9.430773e-003
9.429671e-003
9.428565e-003
9.427465e-003
9.426381e-003
9.425322e-003
9.424293e-003
9.423300e-003
9.422347e-003
9.421434e-003
9.420564e-003
9.419736e-003
9.418952e-003
9.418211e-003
9.417514e-003
9.416862e-003
9.416256e-003
9.415701e-003
9.415200e-003
9.414761e-003
9.414392e-003
9.414102e-003
9.413904e-003
9.413810e-003
9.413834e-003
9.413990e-003
9.414292e-003
9.414753e-003
9.415382e-003
9.416188e-003
9.417173e-003
9.418333e-003
9.419661e-003
9.421138e-003
9.422742e-003
9.424440e-003
9.426195e-003
9.427965e-003
9.429707e-003
9.431377e-003
9.432935e-003
9.434350e-003
9.435596e-003
9.436662e-003
9.437545e-003
9.438250e-003
9.438795e-003
9.439200e-003
9.439487e-003
9.439682e-003
9.439807e-003
9.439881e-003
9.439922e-003
9.439940e-003
9.439946e-003
9.439945e-003
9.439940e-003
9.439936e-003
9.439931e-003
9.439928e-003
9.439925e-003
9.439923e-003
9.439922e-003
9.439921e-003
9.439921e-003
9.439921e-003
9.439920e-003
9.439920e-003
9.439920e-003
9.439921e-003
9.439922e-003
9.439923e-003
9.439925e-003
9.439928e-003
9.439932e-003
9.439937e-003
9.439943e-003
9.439950e-003
9.439956e-003
9.439961e-003
9.439959e-003
9.439947e-003
9.439915e-003
9.439854e-003
9.439749e-003
9.439582e-003
9.439332e-003
9.438977e-003
9.438492e-003
9.437856e-003
9.437047e-003
9.436052e-003
9.434861e-003
9.433475e-003
9.431901e-003
9.430153e-003
9.428253e-003
9.426227e-003
9.424103e-003
9.421911e-003
9.419681e-003
9.417440e-003
9.415212e-003
9.413019e-003
9.410878e-003
9.408803e-003
9.406805e-003
9.404891e-003
9.403065e-003
9.401330e-003
9.399686e-003
9.398133e-003
9.396670e-003
9.395296e-003
9.394010e-003
9.392814e-003
9.391710e-003
9.390704e-003
9.389804e-003
9.389020e-003
9.388368e-003
9.387863e-003
9.387526e-003
9.387379e-003
9.387446e-003
9.387754e-003
9.388326e-003
9.389187e-003
9.390358e-003
9.391855e-003
9.393686e-003
9.395853e-003
9.398345e-003
9.401138e-003
9.404196e-003
9.407467e-003
9.410887e-003
9.414380e-003
9.417862e-003
9.421247e-003
9.424452e-003
9.427405e-003
9.430048e-003
9.432343e-003
9.434274e-003
9.435846e-003
9.437083e-003
9.438021e-003
9.438705e-003
9.439184e-003
9.439505e-003
9.439709e-003
9.439830e-003
9.439897e-003
9.439930e-003
9.439942e-003
9.439944e-003
9.439941e-003
9.439936e-003
9.439932e-003
9.439928e-003
9.439925e-003
9.439923e-003
9.439922e-003
9.439921e-003
9.439921e-003
9.439921e-003
9.439920e-003
9.439920e-003
9.439924e-003
9.439925e-003
9.439927e-003
9.439930e-003
9.439934e-003
9.439940e-003
9.439946e-003
9.439954e-003
9.439960e-003
9.439963e-003
9.439957e-003
9.439933e-003
9.439879e-003
9.439778e-003
9.439604e-003
9.439326e-003
9.438907e-003
9.438303e-003
9.437466e-003
9.436351e-003
9.434913e-003
9.433120e-003
9.430949e-003
9.428394e-003
9.425464e-003
9.422188e-003
9.418606e-003
9.414772e-003
9.410744e-003
9.406587e-003
9.402361e-003
9.398125e-003
9.393929e-003
9.389819e-003
9.385828e-003
9.381985e-003
9.378309e-003
9.374812e-003
9.371503e-003
9.368382e-003
9.365449e-003
9.362699e-003
9.360128e-003
9.357730e-003
9.355501e-003
9.353437e-003
9.351537e-003
9.349805e-003
9.348247e-003
9.346872e-003
9.345695e-003
9.344737e-003
9.344019e-003
9.343570e-003
9.343422e-003
9.343609e-003
9.344169e-003
9.345139e-003
9.346559e-003
9.348464e-003
9.350888e-003
9.353856e-003
9.357385e-003
9.361479e-003
9.366124e-003
9.371283e-003
9.376897e-003
9.382878e-003
9.389112e-003
9.395460e-003
9.401766e-003
9.407866e-003
9.413606e-003
9.418848e-003
9.423489e-003
9.427469e-003
9.430767e-003
9.433408e-003
9.435447e-003
9.436965e-003
9.438051e-003
9.438797e-003
9.439287e-003
9.439593e-003
9.439773e-003
9.439871e-003
9.439920e-003
9.439939e-003
9.439944e-003
9.439942e-003
9.439937e-003
9.439932e-003
9.439928e-003
9.439925e-003
9.439923e-003
9.439922e-003
9.439921e-003
9.439921e-003
9.439920e-003
9.439920e-003
9.439929e-003
9.439930e-003
9.439933e-003
9.439937e-003
9.439943e-003
9.439950e-003
9.439958e-003
9.439964e-003
9.439965e-003
9.439953e-003
9.439916e-003
9.439835e-003
9.439681e-003
9.439417e-003
9.438989e-003
9.438333e-003
9.437370e-003
9.436015e-003
9.434178e-003
9.431772e-003
9.428727e-003
9.424994e-003
9.420555e-003
9.415428e-003
9.409666e-003
9.403355e-003
9.396608e-003
9.389551e-003
9.382316e-003
9.375033e-003
9.367819e-003
9.360776e-003
9.353987e-003
9.347515e-003
9.341404e-003
9.335681e-003
9.330357e-003
9.325433e-003
9.320897e-003
9.316735e-003
9.312926e-003
9.309451e-003
9.306289e-003
9.303421e-003
9.300834e-003
9.298514e-003
9.296455e-003
9.294653e-003
9.293107e-003
9.291821e-003
9.290802e-003
9.290060e-003
9.289608e-003
9.289462e-003
9.289641e-003
9.290166e-003
9.291066e-003
9.292373e-003
9.294125e-003
9.296370e-003
9.299165e-003
9.302574e-003
9.306669e-003
9.311523e-003
9.317205e-003
9.323763e-003
9.331217e-003
9.339536e-003
9.348629e-003
9.358335e-003
9.368422e-003
9.378606e-003
9.388570e-003
9.398002e-003
9.406624e-003
9.414228e-003
9.420692e-003
9.425985e-003
9.430158e-003
9.433324e-003
9.435633e-003
9.437251e-003
9.438339e-003
9.439038e-003
9.439466e-003
9.439713e-003
9.439846e-003
9.439910e-003
9.439937e-003
9.439944e-003
9.439942e-003
9.439938e-003
9.439933e-003
9.439928e-003
9.439925e-003
9.439923e-003
9.439922e-003
9.439921e-003
9.439920e-003
9.439920e-003
9.439935e-003
9.439937e-003
9.439941e-003
9.439947e-003
9.439955e-003
9.439963e-003
9.439969e-003
9.439968e-003
9.439950e-003
9.439897e-003
9.439785e-003
9.439570e-003
9.439195e-003
9.438578e-003
9.437614e-003
9.436172e-003
9.434104e-003
9.431248e-003
9.427446e-003
9.422564e-003
9.416511e-003
9.409256e-003
9.400847e-003
9.391412e-003
9.381150e-003
9.370319e-003
9.359207e-003
9.348111e-003
9.337307e-003
9.327037e-003
9.317493e-003
9.308814e-003
9.301086e-003
9.294350e-003
9.288604e-003
9.283813e-003
9.279918e-003
9.276843e-003
9.274502e-003
9.272810e-003
9.271684e-003
9.271052e-003
9.270853e-003
9.271036e-003
9.271561e-003
9.272394e-003
9.273508e-003
9.274874e-003
9.276461e-003
9.278231e-003
9.280135e-003
9.282116e-003
9.284101e-003
9.286009e-003
9.287750e-003
9.289229e-003
9.290359e-003
9.291066e-003
9.291308e-003
9.291087e-003
9.290464e-003
9.289578e-003
9.288653e-003
9.287998e-003
9.288000e-003
9.289093e-003
9.291714e-003
9.296241e-003
9.302930e-003
9.311849e-003
9.322847e-003
9.335540e-003
9.349356e-003
9.363597e-003
9.377545e-003
9.390551e-003
9.402117e-003
9.411943e-003
9.419926e-003
9.426137e-003
9.430769e-003
9.434081e-003
9.436352e-003
9.437844e-003
9.438781e-003
9.439341e-003
9.439657e-003
9.439824e-003
9.439903e-003
9.439935e-003
9.439944e-003
9.439943e-003
9.439938e-003
9.439932e-003
9.439928e-003
9.439925e-003
9.439923e-003
9.439921e-003
9.439921e-003
9.439920e-003
9.439945e-003
9.439947e-003
9.439953e-003
9.439960e-003
9.439968e-003
9.439974e-003
9.439971e-003
9.439947e-003
9.439881e-003
9.439736e-003
9.439456e-003
9.438957e-003
9.438120e-003
9.436785e-003
9.434748e-003
9.431765e-003
9.427567e-003
9.421886e-003
9.414490e-003
9.405235e-003
9.394107e-003
9.381263e-003
9.367045e-003
9.351974e-003
9.336701e-003
9.321948e-003
9.308437e-003
9.296812e-003
9.287595e-003
9.281148e-003
9.277668e-003
9.277198e-003
9.279650e-003
9.284834e-003
9.292482e-003
9.302282e-003
9.313889e-003
9.326959e-003
9.341158e-003
9.356186e-003
9.371787e-003
9.387750e-003
9.403916e-003
9.420167e-003
9.436414e-003
9.452583e-003
9.468598e-003
9.484363e-003
9.499749e-003
9.514574e-003
9.528596e-003
9.541504e-003
9.552918e-003
9.562387e-003
9.569408e-003
9.573438e-003
9.573930e-003
9.570371e-003
9.562335e-003
9.549540e-003
9.531924e-003
9.509707e-003
9.483453e-003
9.454112e-003
9.423017e-003
9.391833e-003
9.362444e-003
9.336770e-003
9.316541e-003
9.303063e-003
9.297015e-003
9.298333e-003
9.306216e-003
9.319252e-003
9.335658e-003
9.353564e-003
9.371288e-003
9.387535e-003
9.401493e-003
9.412817e-003
9.421539e-003
9.427939e-003
9.432426e-003
9.435435e-003
9.437364e-003
9.438546e-003
9.439235e-003
9.439614e-003
9.439808e-003
9.439899e-003
9.439935e-003
9.439944e-003
9.439942e-003
9.439937e-003
9.439932e-003
9.439927e-003
9.439924e-003
9.439922e-003
9.439921e-003
9.439921e-003
9.439958e-003
9.439961e-003
9.439967e-003
9.439975e-003
9.439980e-003
9.439976e-003
9.439948e-003
9.439869e-003
9.439694e-003
9.439352e-003
9.438728e-003
9.437658e-003
9.435913e-003
9.433192e-003
9.429121e-003
9.423281e-003
9.415243e-003
9.404651e-003
9.391316e-003
9.375337e-003
9.357207e-003
9.337870e-003
9.318714e-003
9.301476e-003
9.288074e-003
9.280392e-003
9.280079e-003
9.288376e-003
9.306022e-003
9.333230e-003
9.369734e-003
9.414876e-003
9.467718e-003
9.527141e-003
9.591938e-003
9.660877e-003
9.732761e-003
9.806474e-003
9.881019e-003
9.955554e-003
1.002940e-002
1.010207e-002
1.017320e-002
1.024258e-002
1.031007e-002
1.037554e-002
1.043884e-002
1.049974e-002
1.055786e-002
1.061265e-002
1.066332e-002
1.070887e-002
1.074803e-002
1.077932e-002
1.080103e-002
1.081131e-002
1.080824e-002
1.078997e-002
1.075480e-002
1.070145e-002
1.062921e-002
1.053816e-002
1.042945e-002
1.030538e-002
1.016960e-002
1.002696e-002
9.883339e-003
9.745198e-003
9.618936e-003
9.510175e-003
9.423052e-003
9.359670e-003
9.319851e-003
9.301266e-003
9.299922e-003
9.310911e-003
9.329238e-003
9.350528e-003
9.371481e-003
9.390016e-003
9.405149e-003
9.416723e-003
9.425089e-003
9.430837e-003
9.434604e-003
9.436960e-003
9.438366e-003
9.439163e-003
9.439590e-003
9.439803e-003
9.439899e-003
9.439935e-003
9.439944e-003
9.439942e-003
9.439936e-003
9.439931e-003
9.439927e-003
9.439924e-003
9.439922e-003
9.439921e-003
9.439975e-003
9.439978e-003
9.439984e-003
9.439989e-003
9.439984e-003
9.439953e-003
9.439866e-003
9.439669e-003
9.439273e-003
9.438538e-003
9.437247e-003
9.435091e-003
9.431650e-003
9.426390e-003
9.418689e-003
9.407912e-003
9.393549e-003
9.375430e-003
9.353995e-003
9.330582e-003
9.307626e-003
9.288707e-003
9.278362e-003
9.281665e-003
9.303655e-003
9.348718e-003
9.420071e-003
9.519430e-003
9.646920e-003
9.801200e-003
9.979747e-003
1.017922e-002
1.039584e-002
1.062564e-002
1.086477e-002
1.110958e-002
1.135674e-002
1.160335e-002
1.184694e-002
1.208557e-002
1.231777e-002
1.254259e-002
1.275949e-002
1.296821e-002
1.316870e-002
1.336091e-002
1.354467e-002
1.371955e-002
1.388469e-002
1.403875e-002
1.417976e-002
1.430512e-002
1.441153e-002
1.449508e-002
1.455124e-002
1.457504e-002
1.456120e-002
1.450447e-002
1.439988e-002
1.424324e-002
1.403162e-002
1.376395e-002
1.344164e-002
1.306914e-002
1.265442e-002
1.220904e-002
1.174793e-002
1.128852e-002
1.084934e-002
1.044817e-002
1.010000e-002
9.815200e-003
9.598197e-003
9.447170e-003
9.354735e-003
9.309585e-003
9.298653e-003
9.309263e-003
9.330779e-003
9.355458e-003
9.378515e-003
9.397625e-003
9.412174e-003
9.422536e-003
9.429509e-003
9.433970e-003
9.436689e-003
9.438267e-003
9.439138e-003
9.439590e-003
9.439808e-003
9.439903e-003
9.439937e-003
9.439944e-003
9.439941e-003
9.439935e-003
9.439930e-003
9.439926e-003
9.439923e-003
9.439922e-003
9.439996e-003
9.439999e-003
9.440001e-003
9.439995e-003
9.439963e-003
9.439872e-003
9.439664e-003
9.439234e-003
9.438414e-003
9.436941e-003
9.434420e-003
9.430300e-003
9.423857e-003
9.414224e-003
9.400509e-003
9.382034e-003
9.358763e-003
9.331891e-003
9.304548e-003
9.282416e-003
9.274021e-003
9.290466e-003
9.344513e-003
9.449128e-003
9.615782e-003
9.852910e-003
1.016485e-002
1.055145e-002
1.100836e-002
1.152781e-002
1.209972e-002
1.271283e-002
1.335566e-002
1.401729e-002
1.468773e-002
1.535820e-002
1.602119e-002
1.667051e-002
1.730129e-002
1.790997e-002
1.849427e-002
1.905299e-002
1.958584e-002
2.009319e-002
2.057567e-002
2.103390e-002
2.146811e-002
2.187782e-002
2.226162e-002
2.261686e-002
2.293953e-002
2.322416e-002
2.346374e-002
2.364977e-002
2.377239e-002
2.382054e-002
2.378236e-002
2.364554e-002
2.339806e-002
2.302891e-002
2.252917e-002
2.189323e-002
2.112025e-002
2.021562e-002
1.919246e-002
1.807253e-002
1.688649e-002
1.567299e-002
1.447626e-002
1.334242e-002
1.231458e-002
1.142771e-002
1.070415e-002
1.015091e-002
9.759520e-003
9.508694e-003
9.369044e-003
9.308708e-003
9.298375e-003
9.314611e-003
9.341105e-003
9.368139e-003
9.391047e-003
9.408424e-003
9.420605e-003
9.428624e-003
9.433626e-003
9.436593e-003
9.438267e-003
9.439163e-003
9.439614e-003
9.439823e-003
9.439910e-003
9.439939e-003
9.439943e-003
9.439939e-003
9.439933e-003
9.439929e-003
9.439925e-003
9.439924e-003
9.440020e-003
9.440019e-003
9.440011e-003
9.439980e-003
9.439891e-003
9.439681e-003
9.439239e-003
9.438376e-003
9.436784e-003
9.433993e-003
9.429318e-003
9.421830e-003
9.410387e-003
9.393791e-003
9.371184e-003
9.342804e-003
9.311172e-003
9.282655e-003
9.269084e-003
9.288849e-003
9.366814e-003
9.532586e-003
9.817185e-003
1.024874e-002
1.084823e-002
1.162634e-002
1.258202e-002
1.370306e-002
1.496818e-002
1.635002e-002
1.781840e-002
1.934318e-002
2.089638e-002
2.245343e-002
2.399372e-002
2.550051e-002
2.696074e-002
2.836469e-002
2.970563e-002
3.097964e-002
3.218519e-002
3.332278e-002
3.439445e-002
3.540317e-002
3.635218e-002
3.724441e-002
3.808182e-002
3.886487e-002
3.959210e-002
4.025972e-002
4.086137e-002
4.138797e-002
4.182761e-002
4.216560e-002
4.238460e-002
4.246485e-002
4.238452e-002
4.212032e-002
4.164822e-002
4.094457e-002
3.998761e-002
3.875946e-002
3.724864e-002
3.545327e-002
3.338444e-002
3.106964e-002
2.855540e-002
2.590823e-002
2.321289e-002
2.056723e-002
1.807347e-002
1.582662e-002
1.390195e-002
1.234446e-002
1.116312e-002
1.033191e-002
9.797704e-003
9.492490e-003
9.346564e-003
9.299036e-003
9.303641e-003
9.329748e-003
9.359947e-003
9.386174e-003
9.405951e-003
9.419563e-003
9.428313e-003
9.433625e-003
9.436688e-003
9.438365e-003
9.439234e-003
9.439657e-003
9.439845e-003
9.439919e-003
9.439941e-003
9.439943e-003
9.439938e-003
9.439932e-003
9.439928e-003
9.439926e-003
9.440042e-003
9.440033e-003
9.440003e-003
9.439919e-003
9.439719e-003
9.439289e-003
9.438427e-003
9.436798e-003
9.433869e-003
9.428837e-003
9.420577e-003
9.407656e-003
9.388531e-003
9.362124e-003
9.329035e-003
9.293675e-003
9.267367e-003
9.272026e-003
9.343291e-003
9.531536e-003
9.899235e-003
1.051416e-002
1.143937e-002
1.272247e-002
1.438684e-002
1.642742e-002
1.881163e-002
2.148478e-002
2.437820e-002
2.741794e-002
3.053226e-002
3.365717e-002
3.673942e-002
3.973738e-002
4.262038e-002
4.536723e-002
4.796460e-002
5.040544e-002
5.268786e-002
5.481408e-002
5.678959e-002
5.862226e-002
6.032144e-002
6.189707e-002
6.335867e-002
6.471455e-002
6.597102e-002
6.713172e-002
6.819715e-002
6.916431e-002
7.002639e-002
7.077269e-002
7.138850e-002
7.185512e-002
7.214986e-002
7.224613e-002
7.211352e-002
7.171798e-002
7.102220e-002
6.998616e-002
6.856833e-002
6.672750e-002
6.442573e-002
6.163274e-002
5.833189e-002
5.452763e-002
5.025394e-002
4.558218e-002
4.062649e-002
3.554365e-002
3.052487e-002
2.577779e-002
2.150008e-002
1.784946e-002
1.491811e-002
1.271968e-002
1.119365e-002
1.022554e-002
9.675851e-003
9.408255e-003
9.309472e-003
9.297831e-003
9.322107e-003
9.354730e-003
9.383581e-003
9.405084e-003
9.419559e-003
9.428620e-003
9.433966e-003
9.436957e-003
9.438544e-003
9.439340e-003
9.439712e-003
9.439870e-003
9.439928e-003
9.439943e-003
9.439941e-003
9.439936e-003
9.439931e-003
9.439929e-003
9.440056e-003
9.440031e-003
9.439956e-003
9.439774e-003
9.439376e-003
9.438560e-003
9.436978e-003
9.434061e-003
9.428922e-003
9.420268e-003
9.406391e-003
9.385374e-003
9.355835e-003
9.318667e-003
9.280422e-003
9.258776e-003
9.289800e-003
9.435356e-003
9.787359e-003
1.046504e-002
1.160263e-002
1.332813e-002
1.573810e-002
1.887566e-002
2.271883e-002
2.718253e-002
3.213283e-002
3.740854e-002
4.284356e-002
4.828542e-002
5.360718e-002
5.871254e-002
6.353564e-002
6.803722e-002
7.219927e-002
7.601952e-002
7.950661e-002
8.267644e-002
8.554936e-002
8.814834e-002
9.049748e-002
9.262094e-002
9.454194e-002
9.628202e-002
9.786027e-002
9.929286e-002
1.005925e-001
1.017684e-001
1.028257e-001
1.037659e-001
1.045865e-001
1.052813e-001
1.058401e-001
1.062488e-001
1.064895e-001
1.065394e-001
1.063710e-001
1.059509e-001
1.052390e-001
1.041874e-001
1.027392e-001
1.008284e-001
9.838007e-002
9.531265e-002
9.154304e-002
8.699581e-002
8.161736e-002
7.539530e-002
6.838147e-002
6.071380e-002
5.262939e-002
4.445871e-002
3.659390e-002
2.943121e-002
2.329969e-002
1.839830e-002
1.476443e-002
1.228527e-002
1.074531e-002
9.889408e-003
9.478518e-003
9.323618e-003
9.295680e-003
9.318343e-003
9.352943e-003
9.383573e-003
9.405938e-003
9.420592e-003
9.429499e-003
9.434596e-003
9.437359e-003
9.438778e-003
9.439463e-003
9.439771e-003
9.439894e-003
9.439936e-003
9.439943e-003
9.439940e-003
9.439936e-003
9.439933e-003
9.440050e-003
9.439993e-003
9.439838e-003
9.439487e-003
9.438752e-003
9.437293e-003
9.434535e-003
9.429550e-003
9.420936e-003
9.406755e-003
9.384718e-003
9.353015e-003
9.312536e-003
9.271610e-003
9.254485e-003
9.313919e-003
9.545945e-003
1.010138e-002
1.118575e-002
1.303986e-002
1.589878e-002
1.993732e-002
2.521865e-002
3.166549e-002
3.906566e-002
4.710989e-002
5.544775e-002
6.374319e-002
7.171561e-002
7.916072e-002
8.595300e-002
9.203557e-002
9.740420e-002
1.020907e-001
1.061486e-001
1.096423e-001
1.126394e-001
1.152054e-001
1.174009e-001
1.192806e-001
1.208921e-001
1.222764e-001
1.234681e-001
1.244962e-001
1.253846e-001
1.261526e-001
1.268153e-001
1.273847e-001
1.278696e-001
1.282765e-001
1.286093e-001
1.288701e-001
1.290591e-001
1.291742e-001
1.292110e-001
1.291624e-001
1.290173e-001
1.287595e-001
1.283664e-001
1.278059e-001
1.270339e-001
1.259901e-001
1.245935e-001
1.227372e-001
1.202842e-001
1.170658e-001
1.128865e-001
1.075407e-001
1.008471e-001
9.270254e-002
8.315014e-002
7.243979e-002
6.105379e-002
4.966717e-002
3.903296e-002
2.981858e-002
2.245377e-002
1.705328e-002
1.344195e-002
1.125827e-002
1.008191e-002
9.534953e-003
9.333671e-003
9.295337e-003
9.318372e-003
9.354723e-003
9.386146e-003
9.408394e-003
9.422511e-003
9.430819e-003
9.435423e-003
9.437837e-003
9.439033e-003
9.439588e-003
9.439826e-003
9.439915e-003
9.439941e-003
9.439944e-003
9.439940e-003
9.439937e-003
9.440002e-003
9.439892e-003
9.439603e-003
9.438974e-003
9.437694e-003
9.435214e-003
9.430619e-003
9.422469e-003
9.408679e-003
9.386633e-003
9.353985e-003
9.311139e-003
9.267117e-003
9.251131e-003
9.331688e-003
9.642029e-003
1.040457e-002
1.193948e-002
1.463907e-002
1.889654e-002
2.499757e-002
3.300906e-002
4.271360e-002
5.362569e-002
6.508918e-002
7.641695e-002
8.701971e-002
9.648547e-002
1.046003e-001
1.113234e-001
1.167380e-001
1.209988e-001
1.242887e-001
1.267901e-001
1.286691e-001
1.300682e-001
1.311044e-001
1.318701e-001
1.324360e-001
1.328547e-001
1.331650e-001
1.333947e-001
1.335640e-001
1.336877e-001
1.337765e-001
1.338385e-001
1.338801e-001
1.339061e-001
1.339203e-001
1.339260e-001
1.339255e-001
1.339207e-001
1.339126e-001
1.339016e-001
1.338871e-001
1.338677e-001
1.338405e-001
1.338008e-001
1.337420e-001
1.336541e-001
1.335229e-001
1.333278e-001
1.330384e-001
1.326094e-001
1.319710e-001
1.310147e-001
1.295713e-001
1.273839e-001
1.240890e-001
1.192293e-001
1.123289e-001
1.030441e-001
9.136198e-002
7.776211e-002
6.323140e-002
4.906833e-002
3.652851e-002
2.647243e-002
1.918460e-002
1.442512e-002
1.163992e-002
1.019791e-002
9.557353e-003
9.334127e-003
9.295943e-003
9.322169e-003
9.359911e-003
9.390986e-003
9.412119e-003
9.425049e-003
9.432399e-003
9.436335e-003
9.438328e-003
9.439279e-003
9.439701e-003
9.439872e-003
9.439931e-003
9.439945e-003
9.439945e-003
9.439943e-003
9.439886e-003
9.439690e-003
9.439188e-003
9.438122e-003
9.436001e-003
9.431972e-003
9.424636e-003
9.411876e-003
9.390850e-003
9.358645e-003
9.314684e-003
9.267122e-003
9.246748e-003
9.332413e-003
9.689170e-003
1.061169e-002
1.255111e-002
1.609028e-002
2.183444e-002
3.021653e-002
4.127485e-002
5.451265e-002
6.893985e-002
8.330919e-002
9.644668e-002
1.075279e-001
1.161983e-001
1.225294e-001
1.268738e-001
1.296988e-001
1.314580e-001
1.325200e-001
1.331518e-001
1.335308e-001
1.337677e-001
1.339264e-001
1.340397e-001
1.341217e-001
1.341767e-001
1.342050e-001
1.342067e-001
1.341830e-001
1.341365e-001
1.340710e-001
1.339908e-001
1.339005e-001
1.338045e-001
1.337071e-001
1.336125e-001
1.335251e-001
1.334493e-001
1.333903e-001
1.333537e-001
1.333456e-001
1.333727e-001
1.334416e-001
1.335584e-001
1.337273e-001
1.339491e-001
1.342191e-001
1.345236e-001
1.348367e-001
1.351173e-001
1.353080e-001
1.353385e-001
1.351363e-001
1.346421e-001
1.338156e-001
1.326043e-001
1.308503e-001
1.281491e-001
1.237518e-001
1.166682e-001
1.060811e-001
9.193207e-002
7.527087e-002
5.803590e-002
4.234297e-002
2.971810e-002
2.071014e-002
1.499796e-002
1.178559e-002
1.020103e-002
9.537399e-003
9.324846e-003
9.298242e-003
9.329775e-003
9.368041e-003
9.397516e-003
9.416638e-003
9.427882e-003
9.434045e-003
9.437229e-003
9.438782e-003
9.439493e-003
9.439794e-003
9.439907e-003
9.439942e-003
9.439949e-003
9.439949e-003
9.439664e-003
9.439337e-003
9.438511e-003
9.436790e-003
9.433427e-003
9.427143e-003
9.415907e-003
9.396808e-003
9.366457e-003
9.323010e-003
9.272261e-003
9.242339e-003
9.313439e-003
9.667800e-003
1.065577e-002
1.285227e-002
1.704894e-002
2.411222e-002
3.467274e-002
4.872098e-002
6.532166e-002
8.269705e-002
9.875259e-002
1.118108e-001
1.211466e-001
1.270421e-001
1.304020e-001
1.322332e-001
1.332916e-001
1.339835e-001
1.344437e-001
1.346714e-001
1.346401e-001
1.343480e-001
1.338231e-001
1.331098e-001
1.322556e-001
1.313037e-001
1.302906e-001
1.292462e-001
1.281939e-001
1.271516e-001
1.261328e-001
1.251466e-001
1.241995e-001
1.232961e-001
1.224401e-001
1.216352e-001
1.208862e-001
1.201999e-001
1.195850e-001
1.190533e-001
1.186197e-001
1.183028e-001
1.181241e-001
1.181092e-001
1.182863e-001
1.186863e-001
1.193413e-001
1.202825e-001
1.215364e-001
1.231190e-001
1.250265e-001
1.272220e-001
1.296178e-001
1.320558e-001
1.342920e-001
1.360006e-001
1.368239e-001
1.364970e-001
1.350068e-001
1.325793e-001
1.292304e-001
1.241047e-001
1.155009e-001
1.020829e-001
8.432020e-002
6.466345e-002
4.628522e-002
3.154830e-002
2.128091e-002
1.501249e-002
1.165369e-002
1.009065e-002
9.482814e-003
9.311097e-003
9.304010e-003
9.341016e-003
9.378327e-003
9.404985e-003
9.421424e-003
9.430696e-003
9.435589e-003
9.438023e-003
9.439164e-003
9.439663e-003
9.439863e-003
9.439932e-003
9.439951e-003
9.439954e-003
9.439290e-003
9.438770e-003
9.437475e-003
9.434813e-003
9.429689e-003
9.420270e-003
9.403756e-003
9.376507e-003
9.335451e-003
9.283153e-003
9.241443e-003
9.281975e-003
9.583576e-003
1.051923e-002
1.275036e-002
1.725950e-002
2.520458e-002
3.749155e-002
5.411643e-002
7.361796e-002
9.318249e-002
1.096863e-001
1.211998e-001
1.278520e-001
1.312888e-001
1.332502e-001
1.345761e-001
1.352577e-001
1.350355e-001
1.338158e-001
1.317242e-001
1.289980e-001
1.258859e-001
1.225974e-001
1.192878e-001
1.160617e-001
1.129833e-001
1.100879e-001
1.073914e-001
1.048969e-001
1.025992e-001
1.004880e-001
9.855031e-002
9.677179e-002
9.513846e-002
9.363774e-002
9.225943e-002
9.099644e-002
8.984533e-002
8.880673e-002
8.788561e-002
8.709153e-002
8.643884e-002
8.594688e-002
8.564031e-002
8.554952e-002
8.571117e-002
8.616893e-002
8.697431e-002
8.818736e-002
8.987713e-002
9.212088e-002
9.500116e-002
9.859851e-002
1.029767e-001
1.081558e-001
1.140676e-001
1.204880e-001
1.269529e-001
1.326945e-001
1.366972e-001
1.380302e-001
1.364845e-001
1.329064e-001
1.280643e-001
1.207186e-001
1.082101e-001
8.978270e-002
6.817749e-002
4.771732e-002
3.159474e-002
2.076415e-002
1.446666e-002
1.128342e-002
9.901956e-003
9.413366e-003