# vtk DataFile Version 3.0
vtk output
ASCII
DATASET STRUCTURED_POINTS
DIMENSIONS 100 100 1
SPACING 1 1 1
ORIGIN 0 0 0
POINT_DATA 10000
SCALARS SFBox_profile double
LOOKUP_TABLE default 
9.439922e-003
9.439924e-003
9.439928e-003
9.439935e-003
9.439943e-003
9.439954e-003
9.439967e-003
9.439980e-003
9.439992e-003
9.439999e-003
9.439991e-003
9.439958e-003
9.439879e-003
9.439728e-003
9.439468e-003
9.439053e-003
9.438426e-003
9.437524e-003
9.436280e-003
9.434626e-003
9.432503e-003
9.429863e-003
9.426676e-003
9.422936e-003
9.418659e-003
9.413884e-003
9.408670e-003
9.403092e-003
9.397234e-003
9.391183e-003
9.385025e-003
9.378841e-003
9.372703e-003
9.366671e-003
9.360797e-003
9.355118e-003
9.349663e-003
9.344451e-003
9.339491e-003
9.334787e-003
9.330334e-003
9.326124e-003
9.322147e-003
9.318388e-003
9.314833e-003
9.311468e-003
9.308280e-003
9.305258e-003
9.302398e-003
9.299697e-003
9.297161e-003
9.294801e-003
9.292635e-003
9.290688e-003
9.288992e-003
9.287588e-003
9.286523e-003
9.285848e-003
9.285623e-003
9.285910e-003
9.286774e-003
9.288282e-003
9.290500e-003
9.293488e-003
9.297301e-003
9.301981e-003
9.307554e-003
9.314023e-003
9.321366e-003
9.329523e-003
9.338399e-003
9.347858e-003
9.357722e-003
9.367779e-003
9.377789e-003
9.387502e-003
9.396676e-003
9.405099e-003
9.412602e-003
9.419078e-003
9.424489e-003
9.428858e-003
9.432262e-003
9.434819e-003
9.436666e-003
9.437947e-003
9.438796e-003
9.439332e-003
9.439651e-003
9.439828e-003
9.439916e-003
9.439953e-003
9.439963e-003
9.439960e-003
9.439952e-003
9.439944e-003
9.439938e-003
9.439933e-003
9.439931e-003
9.439929e-003
9.439922e-003
9.439924e-003
9.439928e-003
9.439935e-003
9.439943e-003
9.439954e-003
9.439967e-003
9.439980e-003
9.439992e-003
9.439999e-003
9.439991e-003
9.439958e-003
9.439879e-003
9.439728e-003
9.439468e-003
9.439053e-003
9.438426e-003
9.437524e-003
9.436280e-003
9.434626e-003
9.432503e-003
9.429863e-003
9.426676e-003
9.422936e-003
9.418659e-003
9.413884e-003
9.408670e-003
9.403092e-003
9.397234e-003
9.391183e-003
9.385025e-003
9.378841e-003
9.372703e-003
9.366671e-003
9.360797e-003
9.355118e-003
9.349663e-003
9.344451e-003
9.339491e-003
9.334787e-003
9.330334e-003
9.326124e-003
9.322147e-003
9.318388e-003
9.314833e-003
9.311468e-003
9.308280e-003
9.305258e-003
9.302398e-003
9.299697e-003
9.297161e-003
9.294801e-003
9.292635e-003
9.290688e-003
9.288992e-003
9.287588e-003
9.286523e-003
9.285848e-003
9.285623e-003
9.285910e-003
9.286774e-003
9.288282e-003
9.290500e-003
9.293488e-003
9.297301e-003
9.301981e-003
9.307554e-003
9.314023e-003
9.321366e-003
9.329523e-003
9.338399e-003
9.347858e-003
9.357722e-003
9.367779e-003
9.377789e-003
9.387502e-003
9.396676e-003
9.405099e-003
9.412602e-003
9.419078e-003
9.424489e-003
9.428858e-003
9.432262e-003
9.434819e-003
9.436666e-003
9.437947e-003
9.438796e-003
9.439332e-003
9.439651e-003
9.439828e-003
9.439916e-003
9.439953e-003
9.439963e-003
9.439960e-003
9.439952e-003
9.439944e-003
9.439938e-003
9.439933e-003
9.439931e-003
9.439929e-003
9.439927e-003
9.439929e-003
9.439933e-003
9.439940e-003
9.439948e-003
9.439959e-003
9.439971e-003
9.439981e-003
9.439984e-003
9.439973e-003
9.439934e-003
9.439843e-003
9.439671e-003
9.439371e-003
9.438887e-003
9.438146e-003
9.437061e-003
9.435539e-003
9.433483e-003
9.430803e-003
9.427424e-003
9.423299e-003
9.418411e-003
9.412781e-003
9.406470e-003
9.399568e-003
9.392192e-003
9.384474e-003
9.376549e-003
9.368552e-003
9.360602e-003
9.352806e-003
9.345248e-003
9.337996e-003
9.331097e-003
9.324583e-003
9.318468e-003
9.312754e-003
9.307435e-003
9.302494e-003
9.297911e-003
9.293664e-003
9.289726e-003
9.286076e-003
9.282689e-003
9.279547e-003
9.276632e-003
9.273934e-003
9.271443e-003
9.269157e-003
9.267078e-003
9.265212e-003
9.263571e-003
9.262170e-003
9.261030e-003
9.260175e-003
9.259631e-003
9.259429e-003
9.259605e-003
9.260194e-003
9.261240e-003
9.262789e-003
9.264894e-003
9.267616e-003
9.271019e-003
9.275176e-003
9.280160e-003
9.286046e-003
9.292897e-003
9.300754e-003
9.309628e-003
9.319477e-003
9.330196e-003
9.341610e-003
9.353469e-003
9.365461e-003
9.377235e-003
9.388440e-003
9.398753e-003
9.407922e-003
9.415786e-003
9.422289e-003
9.427467e-003
9.431436e-003
9.434361e-003
9.436432e-003
9.437837e-003
9.438750e-003
9.439313e-003
9.439642e-003
9.439820e-003
9.439907e-003
9.439943e-003
9.439953e-003
9.439951e-003
9.439945e-003
9.439939e-003
9.439935e-003
9.439932e-003
9.439931e-003
9.439935e-003
9.439937e-003
9.439942e-003
9.439949e-003
9.439958e-003
9.439968e-003
9.439975e-003
9.439974e-003
9.439953e-003
9.439895e-003
9.439769e-003
9.439531e-003
9.439119e-003
9.438445e-003
9.437401e-003
9.435852e-003
9.433646e-003
9.430623e-003
9.426630e-003
9.421541e-003
9.415276e-003
9.407818e-003
9.399229e-003
9.389643e-003
9.379264e-003
9.368346e-003
9.357167e-003
9.346007e-003
9.335126e-003
9.324745e-003
9.315039e-003
9.306136e-003
9.298113e-003
9.291006e-003
9.284815e-003
9.279511e-003
9.275041e-003
9.271337e-003
9.268322e-003
9.265917e-003
9.264045e-003
9.262636e-003
9.261630e-003
9.260980e-003
9.260648e-003
9.260609e-003
9.260846e-003
9.261348e-003
9.262107e-003
9.263117e-003
9.264368e-003
9.265847e-003
9.267532e-003
9.269389e-003
9.271375e-003
9.273432e-003
9.275487e-003
9.277460e-003
9.279260e-003
9.280792e-003
9.281970e-003
9.282720e-003
9.282999e-003
9.282804e-003
9.282192e-003
9.281291e-003
9.280309e-003
9.279542e-003
9.279363e-003
9.280202e-003
9.282505e-003
9.286679e-003
9.293030e-003
9.301695e-003
9.312592e-003
9.325405e-003
9.339602e-003
9.354497e-003
9.369338e-003
9.383414e-003
9.396143e-003
9.407133e-003
9.416205e-003
9.423372e-003
9.428797e-003
9.432734e-003
9.435471e-003
9.437295e-003
9.438457e-003
9.439161e-003
9.439565e-003
9.439781e-003
9.439886e-003
9.439931e-003
9.439945e-003
9.439945e-003
9.439942e-003
9.439938e-003
9.439935e-003
9.439933e-003
9.439948e-003
9.439950e-003
9.439955e-003
9.439963e-003
9.439970e-003
9.439975e-003
9.439970e-003
9.439940e-003
9.439862e-003
9.439696e-003
9.439380e-003
9.438826e-003
9.437906e-003
9.436455e-003
9.434262e-003
9.431082e-003
9.426650e-003
9.420710e-003
9.413051e-003
9.403556e-003
9.392245e-003
9.379304e-003
9.365098e-003
9.350148e-003
9.335088e-003
9.320604e-003
9.307358e-003
9.295931e-003
9.286778e-003
9.280204e-003
9.276359e-003
9.275259e-003
9.276807e-003
9.280820e-003
9.287056e-003
9.295231e-003
9.305042e-003
9.316183e-003
9.328359e-003
9.341300e-003
9.354776e-003
9.368604e-003
9.382650e-003
9.396827e-003
9.411094e-003
9.425439e-003
9.439875e-003
9.454420e-003
9.469088e-003
9.483873e-003
9.498736e-003
9.513592e-003
9.528301e-003
9.542659e-003
9.556390e-003
9.569145e-003
9.580501e-003
9.589973e-003
9.597020e-003
9.601069e-003
9.601546e-003
9.597910e-003
9.589707e-003
9.576619e-003
9.558535e-003
9.535613e-003
9.508337e-003
9.477568e-003
9.444553e-003
9.410894e-003
9.378459e-003
9.349224e-003
9.325061e-003
9.307500e-003
9.297504e-003
9.295308e-003
9.300372e-003
9.311463e-003
9.326854e-003
9.344613e-003
9.362891e-003
9.380170e-003
9.395403e-003
9.408044e-003
9.417978e-003
9.425406e-003
9.430704e-003
9.434316e-003
9.436671e-003
9.438137e-003
9.439006e-003
9.439493e-003
9.439749e-003
9.439872e-003
9.439924e-003
9.439941e-003
9.439944e-003
9.439942e-003
9.439939e-003
9.439938e-003
9.439964e-003
9.439967e-003
9.439972e-003
9.439978e-003
9.439981e-003
9.439972e-003
9.439934e-003
9.439839e-003
9.439635e-003
9.439244e-003
9.438542e-003
9.437354e-003
9.435439e-003
9.432483e-003
9.428111e-003
9.421904e-003
9.413454e-003
9.402442e-003
9.388736e-003
9.372507e-003
9.354316e-003
9.335156e-003
9.316423e-003
9.299805e-003
9.287107e-003
9.280050e-003
9.280087e-003
9.288262e-003
9.305133e-003
9.330782e-003
9.364860e-003
9.406692e-003
9.455373e-003
9.509868e-003
9.569088e-003
9.631938e-003
9.697369e-003
9.764402e-003
9.832166e-003
9.899921e-003
9.967085e-003
1.003324e-002
1.009814e-002
1.016168e-002
1.022388e-002
1.028486e-002
1.034477e-002
1.040377e-002
1.046197e-002
1.051941e-002
1.057597e-002
1.063139e-002
1.068520e-002
1.073672e-002
1.078501e-002
1.082890e-002
1.086698e-002
1.089761e-002
1.091897e-002
1.092911e-002
1.092601e-002
1.090772e-002
1.087250e-002
1.081892e-002
1.074613e-002
1.065401e-002
1.054343e-002
1.041637e-002
1.027611e-002
1.012718e-002
9.975270e-003
9.826791e-003
9.688386e-003
9.566197e-003
9.465125e-003
9.388182e-003
9.336107e-003
9.307328e-003
9.298321e-003
9.304290e-003
9.320009e-003
9.340619e-003
9.362220e-003
9.382145e-003
9.398936e-003
9.412111e-003
9.421847e-003
9.428669e-003
9.433221e-003
9.436119e-003
9.437878e-003
9.438894e-003
9.439449e-003
9.439733e-003
9.439866e-003
9.439922e-003
9.439941e-003
9.439945e-003
9.439944e-003
9.439943e-003
9.439984e-003
9.439987e-003
9.439990e-003
9.439991e-003
9.439979e-003
9.439936e-003
9.439828e-003
9.439596e-003
9.439139e-003
9.438303e-003
9.436855e-003
9.434466e-003
9.430697e-003
9.424998e-003
9.416751e-003
9.405347e-003
9.390342e-003
9.371679e-003
9.349949e-003
9.326655e-003
9.304368e-003
9.286710e-003
9.278118e-003
9.283398e-003
9.307161e-003
9.353257e-003
9.424335e-003
9.521595e-003
9.644760e-003
9.792249e-003
9.961473e-003
1.014919e-002
1.035186e-002
1.056587e-002
1.078778e-002
1.101436e-002
1.124274e-002
1.147037e-002
1.169514e-002
1.191535e-002
1.212979e-002
1.233770e-002
1.253879e-002
1.273313e-002
1.292110e-002
1.310329e-002
1.328036e-002
1.345293e-002
1.362144e-002
1.378608e-002
1.394666e-002
1.410251e-002
1.425244e-002
1.439465e-002
1.452671e-002
1.464553e-002
1.474739e-002
1.482797e-002
1.488243e-002
1.490552e-002
1.489179e-002
1.483578e-002
1.473236e-002
1.457709e-002
1.436669e-002
1.409957e-002
1.377640e-002
1.340070e-002
1.297932e-002
1.252272e-002
1.204486e-002
1.156260e-002
1.109457e-002
1.065940e-002
1.027374e-002
9.950249e-003
9.695936e-003
9.511436e-003
9.391261e-003
9.325122e-003
9.299989e-003
9.302374e-003
9.320291e-003
9.344483e-003
9.368799e-003
9.389885e-003
9.406469e-003
9.418587e-003
9.426921e-003
9.432356e-003
9.435729e-003
9.437723e-003
9.438844e-003
9.439440e-003
9.439736e-003
9.439871e-003
9.439927e-003
9.439945e-003
9.439950e-003
9.439950e-003
9.440007e-003
9.440008e-003
9.440006e-003
9.439992e-003
9.439947e-003
9.439833e-003
9.439582e-003
9.439080e-003
9.438139e-003
9.436471e-003
9.433654e-003
9.429101e-003
9.422064e-003
9.411669e-003
9.397063e-003
9.377682e-003
9.353700e-003
9.326635e-003
9.300011e-003
9.279884e-003
9.274991e-003
9.296330e-003
9.356128e-003
9.466372e-003
9.637209e-003
9.875590e-003
1.018444e-002
1.056250e-002
1.100469e-002
1.150303e-002
1.204766e-002
1.262795e-002
1.323332e-002
1.385391e-002
1.448087e-002
1.510655e-002
1.572446e-002
1.632928e-002
1.691686e-002
1.748418e-002
1.802937e-002
1.855165e-002
1.905123e-002
1.952912e-002
1.998696e-002
2.042670e-002
2.085040e-002
2.125989e-002
2.165658e-002
2.204116e-002
2.241345e-002
2.277217e-002
2.311482e-002
2.343758e-002
2.373524e-002
2.400117e-002
2.422731e-002
2.440431e-002
2.452159e-002
2.456762e-002
2.453015e-002
2.439663e-002
2.415478e-002
2.379324e-002
2.330245e-002
2.267580e-002
2.191088e-002
2.101094e-002
1.998632e-002
1.885570e-002
1.764665e-002
1.639531e-002
1.514464e-002
1.394124e-002
1.283080e-002
1.185290e-002
1.103595e-002
1.039358e-002
9.923303e-003
9.608055e-003
9.420302e-003
9.327610e-003
9.298220e-003
9.305282e-003
9.329003e-003
9.356769e-003
9.381879e-003
9.401720e-003
9.416044e-003
9.425700e-003
9.431847e-003
9.435562e-003
9.437699e-003
9.438865e-003
9.439467e-003
9.439757e-003
9.439885e-003
9.439936e-003
9.439953e-003
9.439957e-003
9.440030e-003
9.440026e-003
9.440011e-003
9.439966e-003
9.439852e-003
9.439597e-003
9.439074e-003
9.438073e-003
9.436255e-003
9.433108e-003
9.427898e-003
9.419653e-003
9.407212e-003
9.389428e-003
9.365622e-003
9.336413e-003
9.304961e-003
9.278512e-003
9.269861e-003
9.298154e-003
9.388408e-003
9.569419e-003
9.870272e-003
1.031616e-002
1.092457e-002
1.170266e-002
1.264652e-002
1.374207e-002
1.496739e-002
1.629567e-002
1.769824e-002
1.914714e-002
2.061694e-002
2.208575e-002
2.353551e-002
2.495182e-002
2.632356e-002
2.764254e-002
2.890316e-002
3.010224e-002
3.123879e-002
3.231385e-002
3.333013e-002
3.429167e-002
3.520337e-002
3.607052e-002
3.689827e-002
3.769116e-002
3.845267e-002
3.918486e-002
3.988797e-002
4.056022e-002
4.119756e-002
4.179357e-002
4.233930e-002
4.282334e-002
4.323178e-002
4.354832e-002
4.375446e-002
4.382966e-002
4.375170e-002
4.349713e-002
4.304186e-002
4.236206e-002
4.143538e-002
4.024260e-002
3.876987e-002
3.701146e-002
3.497316e-002
3.267568e-002
3.015788e-002
2.747859e-002
2.471630e-002
2.196551e-002
1.932945e-002
1.690929e-002
1.479150e-002
1.303573e-002
1.166650e-002
1.067124e-002
1.000554e-002
9.604234e-003
9.395022e-003
9.310729e-003
9.297394e-003
9.317210e-003
9.347240e-003
9.375810e-003
9.398453e-003
9.414564e-003
9.425185e-003
9.431772e-003
9.435645e-003
9.437808e-003
9.438953e-003
9.439525e-003
9.439792e-003
9.439905e-003
9.439948e-003
9.439961e-003
9.440047e-003
9.440034e-003
9.439991e-003
9.439883e-003
9.439637e-003
9.439124e-003
9.438115e-003
9.436237e-003
9.432904e-003
9.427249e-003
9.418079e-003
9.403924e-003
9.383297e-003
9.355380e-003
9.321398e-003
9.286914e-003
9.265014e-003
9.279814e-003
9.369079e-003
9.584372e-003
9.987465e-003
1.064288e-002
1.160788e-002
1.292252e-002
1.460227e-002
1.663534e-002
1.898480e-002
2.159459e-002
2.439754e-002
2.732344e-002
3.030574e-002
3.328621e-002
3.621728e-002
3.906251e-002
4.179564e-002
4.439897e-002
4.686173e-002
4.917856e-002
5.134846e-002
5.337402e-002
5.526079e-002
5.701678e-002
5.865183e-002
6.017701e-002
6.160386e-002
6.294376e-002
6.420723e-002
6.540328e-002
6.653893e-002
6.761873e-002
6.864443e-002
6.961472e-002
7.052509e-002
7.136772e-002
7.213143e-002
7.280176e-002
7.336092e-002
7.378793e-002
7.405859e-002
7.414553e-002
7.401826e-002
7.364318e-002
7.298376e-002
7.200086e-002
7.065346e-002
6.890003e-002
6.670086e-002
6.402166e-002
6.083882e-002
5.714635e-002
5.296419e-002
4.834678e-002
4.339019e-002
3.823494e-002
3.306167e-002
2.807714e-002
2.349056e-002
1.948354e-002
1.618079e-002
1.363035e-002
1.180032e-002
1.059329e-002
9.873481e-003
9.497092e-003
9.336911e-003
9.295886e-003
9.309587e-003
9.341018e-003
9.372350e-003
9.397087e-003
9.414353e-003
9.425451e-003
9.432144e-003
9.435964e-003
9.438033e-003
9.439094e-003
9.439605e-003
9.439835e-003
9.439928e-003
9.439959e-003
9.440051e-003
9.440017e-003
9.439921e-003
9.439697e-003
9.439218e-003
9.438253e-003
9.436414e-003
9.433066e-003
9.427240e-003
9.417553e-003
9.402229e-003
9.379402e-003
9.348023e-003
9.309897e-003
9.273433e-003
9.259442e-003
9.308383e-003
9.487047e-003
9.891235e-003
1.064086e-002
1.186567e-002
1.368335e-002
1.617550e-002
1.936866e-002
2.322644e-002
2.765473e-002
3.251758e-002
3.765836e-002
4.292043e-002
4.816331e-002
5.327234e-002
5.816235e-002
6.277648e-002
6.708218e-002
7.106593e-002
7.472797e-002
7.807793e-002
8.113142e-002
8.390780e-002
8.642857e-002
8.871641e-002
9.079441e-002
9.268536e-002
9.441121e-002
9.599251e-002
9.744785e-002
9.879347e-002
1.000429e-001
1.012067e-001
1.022923e-001
1.033040e-001
1.042428e-001
1.051067e-001
1.058906e-001
1.065866e-001
1.071840e-001
1.076693e-001
1.080261e-001
1.082350e-001
1.082731e-001
1.081135e-001
1.077241e-001
1.070671e-001
1.060974e-001
1.047615e-001
1.029965e-001
1.007299e-001
9.788123e-002
9.436505e-002
9.009876e-002
8.501448e-002
7.907668e-002
7.230451e-002
6.479579e-002
5.674569e-002
4.845080e-002
4.028890e-002
3.267062e-002
2.597006e-002
2.045325e-002
1.622960e-002
1.324461e-002
1.131497e-002
1.018962e-002
9.612440e-003
9.367272e-003
9.297745e-003
9.305824e-003
9.338517e-003
9.371872e-003
9.397802e-003
9.415443e-003
9.426458e-003
9.432903e-003
9.436469e-003
9.438338e-003
9.439264e-003
9.439694e-003
9.439877e-003
9.439942e-003
9.440026e-003
9.439954e-003
9.439764e-003
9.439339e-003
9.438464e-003
9.436753e-003
9.433561e-003
9.427862e-003
9.418137e-003
9.402347e-003
9.378223e-003
9.344329e-003
9.302724e-003
9.264386e-003
9.258476e-003
9.345381e-003
9.630835e-003
1.027500e-002
1.148819e-002
1.350668e-002
1.654881e-002
2.076159e-002
2.617532e-002
3.268373e-002
4.005760e-002
4.798660e-002
5.613394e-002
6.418676e-002
7.189080e-002
7.906593e-002
8.560542e-002
9.146480e-002
9.664633e-002
1.011836e-001
1.051287e-001
1.085424e-001
1.114876e-001
1.140250e-001
1.162109e-001
1.180960e-001
1.197251e-001
1.211371e-001
1.223655e-001
1.234388e-001
1.243808e-001
1.252116e-001
1.259472e-001
1.266006e-001
1.271819e-001
1.276988e-001
1.281569e-001
1.285600e-001
1.289104e-001
1.292091e-001
1.294561e-001
1.296503e-001
1.297896e-001
1.298706e-001
1.298880e-001
1.298348e-001
1.297006e-001
1.294709e-001
1.291256e-001
1.286364e-001
1.279644e-001
1.270564e-001
1.258401e-001
1.242193e-001
1.220688e-001
1.192308e-001
1.155164e-001
1.107162e-001
1.046264e-001
9.709545e-002
8.808917e-002
7.775998e-002
6.649400e-002
5.490274e-002
4.373816e-002
3.374025e-002
2.546677e-002
1.917472e-002
1.480157e-002
1.204341e-002
1.048281e-002
9.708344e-003
9.389252e-003
9.299387e-003
9.305412e-003
9.339860e-003
9.374424e-003
9.400498e-003
9.417674e-003
9.428057e-003
9.433938e-003
9.437086e-003
9.438680e-003
9.439441e-003
9.439776e-003
9.439899e-003
9.439948e-003
9.439813e-003
9.439463e-003
9.438710e-003
9.437199e-003
9.434306e-003
9.429009e-003
9.419729e-003
9.404242e-003
9.379898e-003
9.344701e-003
9.300368e-003
9.259237e-003
9.257299e-003
9.374659e-003
9.761030e-003
1.065724e-002
1.239683e-002
1.537063e-002
1.994706e-002
2.636290e-002
3.462264e-002
4.445264e-002
5.533721e-002
6.662576e-002
7.766799e-002
8.792789e-002
9.704647e-002
1.048505e-001
1.113229e-001
1.165548e-001
1.206973e-001
1.239230e-001
1.264017e-001
1.282867e-001
1.297096e-001
1.307791e-001
1.315817e-001
1.321849e-001
1.326396e-001
1.329837e-001
1.332451e-001
1.334440e-001
1.335952e-001
1.337095e-001
1.337948e-001
1.338573e-001
1.339015e-001
1.339311e-001
1.339493e-001
1.339586e-001
1.339614e-001
1.339594e-001
1.339545e-001
1.339479e-001
1.339406e-001
1.339329e-001
1.339248e-001
1.339154e-001
1.339032e-001
1.338854e-001
1.338580e-001
1.338154e-001
1.337491e-001
1.336476e-001
1.334938e-001
1.332630e-001
1.329186e-001
1.324042e-001
1.316323e-001
1.304647e-001
1.286870e-001
1.259812e-001
1.219197e-001
1.160083e-001
1.078072e-001
9.712199e-002
8.420116e-002
6.983248e-002
5.523764e-002
4.176316e-002
3.049346e-002
2.197417e-002
1.616671e-002
1.261121e-002
1.067367e-002
9.753458e-003
9.393210e-003
9.298870e-003
9.308229e-003
9.344965e-003
9.379722e-003
9.404823e-003
9.420740e-003
9.430026e-003
9.435107e-003
9.437734e-003
9.439015e-003
9.439594e-003
9.439811e-003
9.439783e-003
9.439547e-003
9.438945e-003
9.437679e-003
9.435188e-003
9.430507e-003
9.422085e-003
9.407630e-003
9.384196e-003
9.349121e-003
9.303105e-003
9.257944e-003
9.252633e-003
9.381489e-003
9.833941e-003
1.093557e-002
1.316532e-002
1.711340e-002
2.335261e-002
3.223510e-002
4.368577e-002
5.710227e-002
7.144317e-002
8.548775e-002
9.815239e-002
1.087258e-001
1.169473e-001
1.229389e-001
1.270606e-001
1.297592e-001
1.314572e-001
1.324949e-001
1.331186e-001
1.334939e-001
1.337259e-001
1.338779e-001
1.339845e-001
1.340624e-001
1.341181e-001
1.341526e-001
1.341657e-001
1.341574e-001
1.341287e-001
1.340815e-001
1.340186e-001
1.339427e-001
1.338567e-001
1.337633e-001
1.336650e-001
1.335639e-001
1.334623e-001
1.333626e-001
1.332674e-001
1.331798e-001
1.331037e-001
1.330437e-001
1.330054e-001
1.329951e-001
1.330198e-001
1.330870e-001
1.332036e-001
1.333753e-001
1.336050e-001
1.338907e-001
1.342226e-001
1.345801e-001
1.349277e-001
1.352129e-001
1.353670e-001
1.353124e-001
1.349781e-001
1.343146e-001
1.332861e-001
1.318062e-001
1.296068e-001
1.260950e-001
1.203406e-001
1.113558e-001
9.866178e-002
8.281652e-002
6.546403e-002
4.878183e-002
3.465290e-002
2.406619e-002
1.702559e-002
1.286924e-002
1.070517e-002
9.732177e-003
9.377481e-003
9.297117e-003
9.314648e-003
9.353500e-003
9.387175e-003
9.410232e-003
9.424246e-003
9.432118e-003
9.436272e-003
9.438339e-003
9.439292e-003
9.439656e-003
9.439489e-003
9.439096e-003
9.438113e-003
9.436080e-003
9.432147e-003
9.424877e-003
9.412038e-003
9.390546e-003
9.357115e-003
9.310946e-003
9.261314e-003
9.245070e-003
9.360519e-003
9.821483e-003
1.102334e-002
1.358902e-002
1.833532e-002
2.609396e-002
3.737406e-002
5.197294e-002
6.876511e-002
8.588841e-002
1.013283e-001
1.136139e-001
1.222418e-001
1.276260e-001
1.306834e-001
1.323583e-001
1.333343e-001
1.339737e-001
1.343990e-001
1.346139e-001
1.345981e-001
1.343509e-001
1.338967e-001
1.332739e-001
1.325232e-001
1.316822e-001
1.307822e-001
1.298487e-001
1.289017e-001
1.279566e-001
1.270244e-001
1.261126e-001
1.252255e-001
1.243652e-001
1.235322e-001
1.227261e-001
1.219467e-001
1.211940e-001
1.204698e-001
1.197770e-001
1.191211e-001
1.185098e-001
1.179537e-001
1.174663e-001
1.170643e-001
1.167673e-001
1.165983e-001
1.165832e-001
1.167509e-001
1.171324e-001
1.177604e-001
1.186671e-001
1.198822e-001
1.214275e-001
1.233094e-001
1.255080e-001
1.279602e-001
1.305399e-001
1.330387e-001
1.351569e-001
1.365287e-001
1.368135e-001
1.358599e-001
1.338173e-001
1.309001e-001
1.267171e-001
1.198440e-001
1.085505e-001
9.238698e-002
7.306336e-002
5.369308e-002
3.716836e-002
2.499446e-002
1.716456e-002
1.274595e-002
1.056793e-002
9.652229e-003
9.349248e-003
9.297301e-003
9.325085e-003
9.364790e-003
9.395958e-003
9.416093e-003
9.427794e-003
9.434112e-003
9.437314e-003
9.438817e-003
9.439400e-003
9.439009e-003
9.438390e-003
9.436854e-003
9.433723e-003
9.427754e-003
9.416905e-003
9.398146e-003
9.367779e-003
9.323416e-003
9.270495e-003
9.238958e-003
9.319079e-003
9.725612e-003
1.088892e-002
1.354159e-002
1.871966e-002
2.755860e-002
4.080489e-002
5.815515e-002
7.782462e-002
9.686172e-002
1.123366e-001
1.227551e-001
1.286218e-001
1.316613e-001
1.334521e-001
1.346622e-001
1.352317e-001
1.349349e-001
1.337150e-001
1.317043e-001
1.291238e-001
1.261981e-001
1.231145e-001
1.200115e-001
1.169827e-001
1.140858e-001
1.113530e-001
1.087989e-001
1.064269e-001
1.042326e-001
1.022068e-001
1.003368e-001
9.860834e-002
9.700632e-002
9.551584e-002
9.412311e-002
9.281614e-002
9.158526e-002
9.042364e-002
8.932756e-002
8.829667e-002
8.733411e-002
8.644664e-002
8.564467e-002
8.494233e-002
8.435759e-002
8.391236e-002
8.363279e-002
8.354966e-002
8.369895e-002
8.412261e-002
8.486949e-002
8.599632e-002
8.756857e-002
8.966055e-002
9.235397e-002
9.573310e-002
9.987403e-002
1.048238e-001
1.105638e-001
1.169513e-001
1.236384e-001
1.299874e-001
1.350525e-001
1.377718e-001
1.375069e-001
1.346712e-001
1.303523e-001
1.243600e-001
1.143007e-001
9.817056e-002
7.730776e-002
5.578744e-002
3.756828e-002
2.455164e-002
1.654960e-002
1.227705e-002
1.030430e-002
9.540758e-003
9.320647e-003
9.302825e-003
9.339367e-003
9.377779e-003
9.405139e-003
9.421801e-003
9.431050e-003
9.435830e-003
9.438110e-003
9.439005e-003
9.438283e-003
9.437345e-003
9.435041e-003
9.430401e-003
9.421683e-003
9.406114e-003
9.379896e-003
9.339395e-003
9.285959e-003
9.239845e-003
9.273462e-003
9.577924e-003
1.057169e-002
1.303078e-002
1.815403e-002
2.739103e-002
4.184616e-002
6.129093e-002
8.333743e-002
1.037916e-001
1.187532e-001
1.272175e-001
1.313933e-001
1.339440e-001
1.355440e-001
1.354134e-001
1.330015e-001
1.285616e-001
1.227940e-001
1.164202e-001
1.099842e-001
1.038259e-001
9.812311e-002
9.294630e-002
8.830184e-002
8.416209e-002
8.048403e-002
7.721989e-002
7.432255e-002
7.174783e-002
6.945521e-002
6.740781e-002
6.557226e-002
6.391858e-002
6.242011e-002
6.105355e-002
5.979903e-002
5.864014e-002
5.756395e-002
5.656099e-002
5.562518e-002
5.475377e-002
5.394719e-002
5.320899e-002
5.254572e-002
5.196689e-002
5.148502e-002
5.111580e-002
5.087840e-002
5.079603e-002
5.089680e-002
5.121490e-002
5.179238e-002
5.268142e-002
5.394738e-002
5.567253e-002
5.796049e-002
6.094063e-002
6.477141e-002
6.963959e-002
7.574965e-002
8.329256e-002
9.237594e-002
1.028919e-001
1.143074e-001
1.254164e-001
1.342535e-001
1.386234e-001
1.376325e-001
1.329846e-001
1.267132e-001
1.169955e-001
1.004156e-001
7.795573e-002
5.479362e-002
3.578317e-002
2.284180e-002
1.533832e-002
1.159007e-002
9.989098e-003
9.431442e-003
9.302713e-003
9.315321e-003
9.356411e-003
9.391184e-003
9.413849e-003
9.426879e-003
9.433765e-003
9.437101e-003
9.438425e-003
9.437244e-003
9.435877e-003
9.432548e-003
9.425919e-003
9.413643e-003
9.392164e-003
9.357204e-003
9.306771e-003
9.251283e-003
9.240589e-003
9.424395e-003
1.016450e-002
1.219736e-002
1.677797e-002
2.561073e-002
4.026469e-002
6.091478e-002
8.493950e-002
1.069580e-001
1.218774e-001
1.292678e-001
1.330535e-001
1.355985e-001
1.354956e-001
1.312000e-001
1.232012e-001
1.131450e-001
1.026031e-001
9.259674e-002
8.362400e-002
7.583512e-002
6.919144e-002
6.357067e-002
5.882600e-002
5.481517e-002
5.141260e-002
4.851265e-002
4.602858e-002
4.388985e-002
4.203898e-002
4.042874e-002
3.901993e-002
3.777967e-002
3.668025e-002
3.569835e-002
3.481443e-002
3.401239e-002
3.327921e-002
3.260475e-002
3.198153e-002
3.140448e-002
3.087082e-002
3.037985e-002
2.993281e-002
2.953279e-002
2.918464e-002
2.889498e-002
2.867235e-002
2.852738e-002
2.847329e-002
2.852646e-002
2.870754e-002
2.904281e-002
2.956634e-002
3.032290e-002
3.137219e-002
3.279455e-002
3.469885e-002
3.723284e-002
4.059593e-002
4.505299e-002
5.094386e-002
5.867510e-002
6.866572e-002
8.119739e-002
9.610554e-002
1.122877e-001
1.272110e-001
1.371150e-001
1.391073e-001
1.345620e-001
1.276206e-001
1.173661e-001
9.935126e-002
7.499462e-002
5.085167e-002
3.215516e-002
2.024712e-002
1.382047e-002
1.085217e-002
9.698148e-003
9.350441e-003
9.300847e-003
9.333880e-003
9.374438e-003
9.403758e-003
9.421420e-003
9.430999e-003
9.435719e-003
9.437611e-003
9.435831e-003
9.433908e-003
9.429264e-003
9.420117e-003
9.403440e-003
9.374961e-003
9.330654e-003
9.273055e-003
9.230440e-003
9.304815e-003
9.772634e-003
1.125628e-002
1.493328e-002
2.261559e-002
3.633286e-002
5.701633e-002
8.250382e-002
1.066794e-001
1.227742e-001
1.300908e-001
1.339626e-001
1.360078e-001
1.327927e-001
1.230894e-001
1.092681e-001
9.442702e-002
8.065109e-002
6.885761e-002
5.920207e-002
5.147424e-002
4.534445e-002
4.048416e-002
3.661171e-002
3.350189e-002
3.098078e-002
2.891640e-002
2.720932e-002
2.578456e-002
2.458523e-002
2.356761e-002
2.269759e-002
2.194810e-002
2.129735e-002
2.072762e-002
2.022443e-002
1.977598e-002
1.937272e-002
1.900707e-002
1.867315e-002
1.836660e-002
1.808442e-002
1.782479e-002
1.758698e-002
1.737123e-002
1.717868e-002
1.701131e-002
1.687194e-002
1.676431e-002
1.669318e-002
1.666456e-002
1.668614e-002
1.676779e-002
1.692252e-002
1.716772e-002
1.752712e-002
1.803368e-002
1.873399e-002
1.969474e-002
2.101267e-002
2.282936e-002
2.535271e-002
2.888623e-002
3.386330e-002
4.087284e-002
5.063888e-002
6.387497e-002
8.088796e-002
1.008220e-001
1.206985e-001
1.352275e-001
1.395301e-001
1.348337e-001
1.271844e-001
1.155303e-001
9.488467e-002
6.858456e-002
4.452167e-002
2.736907e-002
1.730780e-002
1.231347e-002
1.020850e-002
9.481857e-003
9.308578e-003
9.313918e-003
9.355702e-003
9.391543e-003
9.414547e-003
9.427428e-003
9.433895e-003
9.436516e-003
9.433992e-003
9.431379e-003
9.425110e-003
9.412902e-003
9.391023e-003
9.354752e-003
9.301651e-003
9.243348e-003
9.238815e-003
9.473018e-003
1.041135e-002
1.303584e-002
1.906150e-002
3.079849e-002
5.008647e-002
7.601403e-002
1.027803e-001
1.217386e-001
1.300581e-001
1.340231e-001
1.356204e-001
1.296170e-001
1.151018e-001
9.643056e-002
7.809594e-002
6.250283e-002
5.026498e-002
4.106467e-002
3.427994e-002
2.929596e-002
2.561344e-002
2.286099e-002
2.077361e-002
1.916548e-002
1.790681e-002
1.690660e-002
1.610052e-002
1.544260e-002
1.489949e-002
1.444654e-002
1.406519e-002
1.374117e-002
1.346332e-002
1.322278e-002
1.301247e-002
1.282675e-002
1.266111e-002
1.251201e-002
1.237672e-002
1.225322e-002
1.214010e-002
1.203644e-002
1.194181e-002
1.185616e-002
1.177979e-002
1.171335e-002
1.165781e-002
1.161448e-002
1.158509e-002
1.157186e-002
1.157768e-002
1.160639e-002
1.166317e-002
1.175519e-002
1.189253e-002
1.208979e-002
1.236845e-002
1.276083e-002
1.331654e-002
1.411320e-002
1.527421e-002
1.699758e-002
1.960035e-002
2.358013e-002
2.968171e-002
3.892116e-002
5.244846e-002
7.103786e-002
9.399066e-002
1.176320e-001
1.348989e-001
1.394215e-001
1.337529e-001
1.253600e-001
1.110023e-001
8.674499e-002