# vtk DataFile Version 3.0
vtk output
ASCII
DATASET STRUCTURED_POINTS
DIMENSIONS 100 100 1
SPACING 1 1 1
ORIGIN 0 0 0
POINT_DATA 10000
SCALARS SFBox_profile double
LOOKUP_TABLE default 
9.439926e-003
9.439926e-003
9.439927e-003
9.439928e-003
9.439929e-003
9.439931e-003
9.439935e-003
9.439942e-003
9.439950e-003
9.439961e-003
9.439974e-003
9.439984e-003
9.439990e-003
9.439985e-003
9.439961e-003
9.439910e-003
9.439819e-003
9.439674e-003
9.439458e-003
9.439155e-003
9.438747e-003
9.438218e-003
9.437555e-003
9.436749e-003
9.435799e-003
9.434705e-003
9.433478e-003
9.432129e-003
9.430675e-003
9.429135e-003
9.427530e-003
9.425880e-003
9.424204e-003
9.422521e-003
9.420845e-003
9.419189e-003
9.417565e-003
9.415978e-003
9.414434e-003
9.412936e-003
9.411483e-003
9.410075e-003
9.408711e-003
9.407388e-003
9.406105e-003
9.404861e-003
9.403657e-003
9.402495e-003
9.401381e-003
9.400323e-003
9.399331e-003
9.398419e-003
9.397603e-003
9.396903e-003
9.396338e-003
9.395933e-003
9.395711e-003
9.395695e-003
9.395909e-003
9.396377e-003
9.397116e-003
9.398141e-003
9.399464e-003
9.401085e-003
9.402999e-003
9.405191e-003
9.407633e-003
9.410288e-003
9.413106e-003
9.416030e-003
9.418991e-003
9.421921e-003
9.424749e-003
9.427409e-003
9.429845e-003
9.432015e-003
9.433890e-003
9.435462e-003
9.436736e-003
9.437734e-003
9.438486e-003
9.439030e-003
9.439408e-003
9.439657e-003
9.439813e-003
9.439904e-003
9.439952e-003
9.439972e-003
9.439975e-003
9.439969e-003
9.439958e-003
9.439944e-003
9.439932e-003
9.439923e-003
9.439917e-003
9.439916e-003
9.439918e-003
9.439922e-003
9.439926e-003
9.439928e-003
9.439926e-003
9.439926e-003
9.439927e-003
9.439928e-003
9.439929e-003
9.439931e-003
9.439935e-003
9.439942e-003
9.439950e-003
9.439961e-003
9.439974e-003
9.439984e-003
9.439990e-003
9.439985e-003
9.439961e-003
9.439910e-003
9.439819e-003
9.439674e-003
9.439458e-003
9.439155e-003
9.438747e-003
9.438218e-003
9.437555e-003
9.436749e-003
9.435799e-003
9.434705e-003
9.433478e-003
9.432129e-003
9.430675e-003
9.429135e-003
9.427530e-003
9.425880e-003
9.424204e-003
9.422521e-003
9.420845e-003
9.419189e-003
9.417565e-003
9.415978e-003
9.414434e-003
9.412936e-003
9.411483e-003
9.410075e-003
9.408711e-003
9.407388e-003
9.406105e-003
9.404861e-003
9.403657e-003
9.402495e-003
9.401381e-003
9.400323e-003
9.399331e-003
9.398419e-003
9.397603e-003
9.396903e-003
9.396338e-003
9.395933e-003
9.395711e-003
9.395695e-003
9.395909e-003
9.396377e-003
9.397116e-003
9.398141e-003
9.399464e-003
9.401085e-003
9.402999e-003
9.405191e-003
9.407633e-003
9.410288e-003
9.413106e-003
9.416030e-003
9.418991e-003
9.421921e-003
9.424749e-003
9.427409e-003
9.429845e-003
9.432015e-003
9.433890e-003
9.435462e-003
9.436736e-003
9.437734e-003
9.438486e-003
9.439030e-003
9.439408e-003
9.439657e-003
9.439813e-003
9.439904e-003
9.439952e-003
9.439972e-003
9.439975e-003
9.439969e-003
9.439958e-003
9.439944e-003
9.439932e-003
9.439923e-003
9.439917e-003
9.439916e-003
9.439918e-003
9.439922e-003
9.439926e-003
9.439928e-003
9.439925e-003
9.439925e-003
9.439927e-003
9.439929e-003
9.439932e-003
9.439936e-003
9.439941e-003
9.439948e-003
9.439956e-003
9.439965e-003
9.439972e-003
9.439973e-003
9.439961e-003
9.439926e-003
9.439855e-003
9.439731e-003
9.439534e-003
9.439240e-003
9.438822e-003
9.438253e-003
9.437508e-003
9.436564e-003
9.435405e-003
9.434022e-003
9.432416e-003
9.430596e-003
9.428580e-003
9.426394e-003
9.424067e-003
9.421633e-003
9.419124e-003
9.416573e-003
9.414010e-003
9.411460e-003
9.408946e-003
9.406485e-003
9.404091e-003
9.401771e-003
9.399531e-003
9.397373e-003
9.395295e-003
9.393295e-003
9.391368e-003
9.389513e-003
9.387724e-003
9.386001e-003
9.384343e-003
9.382754e-003
9.381241e-003
9.379812e-003
9.378482e-003
9.377268e-003
9.376190e-003
9.375273e-003
9.374543e-003
9.374029e-003
9.373761e-003
9.373771e-003
9.374089e-003
9.374746e-003
9.375768e-003
9.377178e-003
9.378994e-003
9.381224e-003
9.383869e-003
9.386914e-003
9.390334e-003
9.394085e-003
9.398110e-003
9.402334e-003
9.406670e-003
9.411017e-003
9.415275e-003
9.419340e-003
9.423120e-003
9.426539e-003
9.429542e-003
9.432100e-003
9.434208e-003
9.435889e-003
9.437181e-003
9.438139e-003
9.438820e-003
9.439284e-003
9.439586e-003
9.439772e-003
9.439879e-003
9.439934e-003
9.439957e-003
9.439961e-003
9.439955e-003
9.439945e-003
9.439935e-003
9.439927e-003
9.439922e-003
9.439920e-003
9.439920e-003
9.439922e-003
9.439925e-003
9.439926e-003
9.439923e-003
9.439924e-003
9.439928e-003
9.439932e-003
9.439938e-003
9.439944e-003
9.439951e-003
9.439958e-003
9.439964e-003
9.439966e-003
9.439957e-003
9.439929e-003
9.439867e-003
9.439751e-003
9.439552e-003
9.439235e-003
9.438760e-003
9.438079e-003
9.437142e-003
9.435900e-003
9.434309e-003
9.432334e-003
9.429955e-003
9.427168e-003
9.423990e-003
9.420451e-003
9.416600e-003
9.412495e-003
9.408200e-003
9.403782e-003
9.399305e-003
9.394828e-003
9.390401e-003
9.386067e-003
9.381860e-003
9.377802e-003
9.373910e-003
9.370191e-003
9.366648e-003
9.363277e-003
9.360071e-003
9.357024e-003
9.354125e-003
9.351367e-003
9.348742e-003
9.346246e-003
9.343879e-003
9.341642e-003
9.339543e-003
9.337594e-003
9.335810e-003
9.334211e-003
9.332821e-003
9.331669e-003
9.330784e-003
9.330200e-003
9.329952e-003
9.330079e-003
9.330617e-003
9.331607e-003
9.333087e-003
9.335096e-003
9.337667e-003
9.340830e-003
9.344607e-003
9.349006e-003
9.354020e-003
9.359622e-003
9.365757e-003
9.372345e-003
9.379271e-003
9.386395e-003
9.393553e-003
9.400564e-003
9.407249e-003
9.413444e-003
9.419013e-003
9.423862e-003
9.427947e-003
9.431271e-003
9.433882e-003
9.435859e-003
9.437299e-003
9.438307e-003
9.438982e-003
9.439415e-003
9.439677e-003
9.439825e-003
9.439902e-003
9.439936e-003
9.439947e-003
9.439946e-003
9.439940e-003
9.439934e-003
9.439930e-003
9.439926e-003
9.439924e-003
9.439923e-003
9.439923e-003
9.439923e-003
9.439923e-003
9.439925e-003
9.439931e-003
9.439938e-003
9.439946e-003
9.439955e-003
9.439963e-003
9.439968e-003
9.439966e-003
9.439947e-003
9.439900e-003
9.439803e-003
9.439623e-003
9.439318e-003
9.438830e-003
9.438088e-003
9.437006e-003
9.435495e-003
9.433460e-003
9.430813e-003
9.427486e-003
9.423435e-003
9.418649e-003
9.413158e-003
9.407028e-003
9.400357e-003
9.393268e-003
9.385898e-003
9.378386e-003
9.370863e-003
9.363448e-003
9.356240e-003
9.349318e-003
9.342737e-003
9.336535e-003
9.330729e-003
9.325324e-003
9.320310e-003
9.315672e-003
9.311388e-003
9.307437e-003
9.303795e-003
9.300442e-003
9.297362e-003
9.294541e-003
9.291971e-003
9.289646e-003
9.287566e-003
9.285730e-003
9.284143e-003
9.282809e-003
9.281732e-003
9.280918e-003
9.280369e-003
9.280091e-003
9.280086e-003
9.280360e-003
9.280923e-003
9.281788e-003
9.282980e-003
9.284532e-003
9.286494e-003
9.288931e-003
9.291921e-003
9.295558e-003
9.299944e-003
9.305179e-003
9.311352e-003
9.318522e-003
9.326703e-003
9.335844e-003
9.345819e-003
9.356417e-003
9.367354e-003
9.378292e-003
9.388873e-003
9.398756e-003
9.407659e-003
9.415385e-003
9.421843e-003
9.427036e-003
9.431054e-003
9.434043e-003
9.436180e-003
9.437645e-003
9.438608e-003
9.439211e-003
9.439569e-003
9.439769e-003
9.439873e-003
9.439921e-003
9.439940e-003
9.439945e-003
9.439943e-003
9.439939e-003
9.439935e-003
9.439930e-003
9.439925e-003
9.439921e-003
9.439919e-003
9.439927e-003
9.439930e-003
9.439937e-003
9.439946e-003
9.439957e-003
9.439968e-003
9.439973e-003
9.439969e-003
9.439942e-003
9.439875e-003
9.439738e-003
9.439484e-003
9.439049e-003
9.438342e-003
9.437248e-003
9.435626e-003
9.433316e-003
9.430151e-003
9.425969e-003
9.420641e-003
9.414086e-003
9.406296e-003
9.397342e-003
9.387383e-003
9.376649e-003
9.365424e-003
9.354019e-003
9.342742e-003
9.331876e-003
9.321659e-003
9.312272e-003
9.303840e-003
9.296434e-003
9.290074e-003
9.284741e-003
9.280384e-003
9.276931e-003
9.274301e-003
9.272407e-003
9.271171e-003
9.270525e-003
9.270415e-003
9.270800e-003
9.271654e-003
9.272957e-003
9.274697e-003
9.276861e-003
9.279430e-003
9.282375e-003
9.285651e-003
9.289196e-003
9.292926e-003
9.296733e-003
9.300491e-003
9.304050e-003
9.307251e-003
9.309925e-003
9.311911e-003
9.313064e-003
9.313271e-003
9.312472e-003
9.310671e-003
9.307958e-003
9.304520e-003
9.300648e-003
9.296738e-003
9.293276e-003
9.290812e-003
9.289914e-003
9.291109e-003
9.294811e-003
9.301248e-003
9.310403e-003
9.321988e-003
9.335461e-003
9.350085e-003
9.365026e-003
9.379472e-003
9.392736e-003
9.404330e-003
9.414000e-003
9.421709e-003
9.427589e-003
9.431887e-003
9.434897e-003
9.436917e-003
9.438214e-003
9.439008e-003
9.439470e-003
9.439724e-003
9.439855e-003
9.439917e-003
9.439942e-003
9.439950e-003
9.439949e-003
9.439943e-003
9.439935e-003
9.439927e-003
9.439921e-003
9.439917e-003
9.439937e-003
9.439941e-003
9.439948e-003
9.439958e-003
9.439969e-003
9.439976e-003
9.439971e-003
9.439939e-003
9.439855e-003
9.439678e-003
9.439346e-003
9.438765e-003
9.437803e-003
9.436284e-003
9.433988e-003
9.430652e-003
9.425996e-003
9.419747e-003
9.411683e-003
9.401687e-003
9.389791e-003
9.376217e-003
9.361385e-003
9.345891e-003
9.330457e-003
9.315860e-003
9.302849e-003
9.292073e-003
9.284033e-003
9.279057e-003
9.277291e-003
9.278728e-003
9.283225e-003
9.290546e-003
9.300384e-003
9.312399e-003
9.326242e-003
9.341580e-003
9.358121e-003
9.375625e-003
9.393915e-003
9.412876e-003
9.432446e-003
9.452603e-003
9.473345e-003
9.494672e-003
9.516560e-003
9.538943e-003
9.561693e-003
9.584604e-003
9.607381e-003
9.629632e-003
9.650868e-003
9.670503e-003
9.687873e-003
9.702247e-003
9.712860e-003
9.718943e-003
9.719771e-003
9.714712e-003
9.703286e-003
9.685226e-003
9.660546e-003
9.629596e-003
9.593116e-003
9.552265e-003
9.508615e-003
9.464115e-003
9.420977e-003
9.381520e-003
9.347942e-003
9.322061e-003
9.305070e-003
9.297348e-003
9.298391e-003
9.306886e-003
9.320930e-003
9.338331e-003
9.356955e-003
9.375002e-003
9.391188e-003
9.404791e-003
9.415588e-003
9.423724e-003
9.429567e-003
9.433575e-003
9.436203e-003
9.437850e-003
9.438836e-003
9.439396e-003
9.439698e-003
9.439850e-003
9.439920e-003
9.439948e-003
9.439954e-003
9.439949e-003
9.439940e-003
9.439930e-003
9.439922e-003
9.439917e-003
9.439954e-003
9.439958e-003
9.439964e-003
9.439972e-003
9.439978e-003
9.439971e-003
9.439935e-003
9.439838e-003
9.439628e-003
9.439222e-003
9.438495e-003
9.437263e-003
9.435274e-003
9.432200e-003
9.427642e-003
9.421160e-003
9.412321e-003
9.400790e-003
9.386443e-003
9.369489e-003
9.350577e-003
9.330846e-003
9.311888e-003
9.295627e-003
9.284123e-003
9.279336e-003
9.282911e-003
9.296018e-003
9.319270e-003
9.352719e-003
9.395930e-003
9.448085e-003
9.508106e-003
9.574764e-003
9.646778e-003
9.722893e-003
9.801949e-003
9.882930e-003
9.965013e-003
1.004759e-002
1.013027e-002
1.021285e-002
1.029532e-002
1.037774e-002
1.046023e-002
1.054288e-002
1.062569e-002
1.070848e-002
1.079088e-002
1.087225e-002
1.095165e-002
1.102788e-002
1.109939e-002
1.116436e-002
1.122073e-002
1.126620e-002
1.129839e-002
1.131483e-002
1.131317e-002
1.129124e-002
1.124724e-002
1.117994e-002
1.108880e-002
1.097422e-002
1.083769e-002
1.068195e-002
1.051109e-002
1.033048e-002
1.014667e-002
9.966953e-003
9.798857e-003
9.649372e-003
9.524155e-003
9.426805e-003
9.358394e-003
9.317382e-003
9.299970e-003
9.300825e-003
9.314017e-003
9.333933e-003
9.355975e-003
9.376909e-003
9.394875e-003
9.409152e-003
9.419800e-003
9.427316e-003
9.432362e-003
9.435593e-003
9.437569e-003
9.438720e-003
9.439358e-003
9.439692e-003
9.439855e-003
9.439925e-003
9.439950e-003
9.439952e-003
9.439944e-003
9.439934e-003
9.439925e-003
9.439920e-003
9.439978e-003
9.439981e-003
9.439984e-003
9.439985e-003
9.439975e-003
9.439934e-003
9.439827e-003
9.439593e-003
9.439127e-003
9.438270e-003
9.436782e-003
9.434321e-003
9.430428e-003
9.424530e-003
9.415976e-003
9.404129e-003
9.388531e-003
9.369146e-003
9.346663e-003
9.322787e-003
9.300425e-003
9.283680e-003
9.277585e-003
9.287603e-003
9.318979e-003
9.376093e-003
9.461943e-003
9.577857e-003
9.723472e-003
9.896924e-003
1.009520e-002
1.031456e-002
1.055088e-002
1.080002e-002
1.105802e-002
1.132128e-002
1.158669e-002
1.185170e-002
1.211438e-002
1.237348e-002
1.262833e-002
1.287879e-002
1.312515e-002
1.336792e-002
1.360766e-002
1.384482e-002
1.407955e-002
1.431154e-002
1.453990e-002
1.476306e-002
1.497870e-002
1.518374e-002
1.537433e-002
1.554590e-002
1.569324e-002
1.581062e-002
1.589194e-002
1.593093e-002
1.592139e-002
1.585750e-002
1.573411e-002
1.554717e-002
1.529415e-002
1.497454e-002
1.459035e-002
1.414662e-002
1.365181e-002
1.311806e-002
1.256107e-002
1.199958e-002
1.145419e-002
1.094561e-002
1.049259e-002
1.010960e-002
9.805084e-003
9.580401e-003
9.430014e-003
9.342817e-003
9.304361e-003
9.299399e-003
9.314144e-003
9.337743e-003
9.362812e-003
9.385161e-003
9.403035e-003
9.416243e-003
9.425402e-003
9.431416e-003
9.435173e-003
9.437409e-003
9.438677e-003
9.439358e-003
9.439702e-003
9.439863e-003
9.439927e-003
9.439947e-003
9.439946e-003
9.439938e-003
9.439931e-003
9.439927e-003
9.440008e-003
9.440007e-003
9.440003e-003
9.439988e-003
9.439942e-003
9.439828e-003
9.439578e-003
9.439073e-003
9.438120e-003
9.436421e-003
9.433541e-003
9.428873e-003
9.421639e-003
9.410930e-003
9.395858e-003
9.375849e-003
9.351131e-003
9.323410e-003
9.296613e-003
9.277496e-003
9.275835e-003
9.303982e-003
9.375716e-003
9.504579e-003
9.702051e-003
9.975988e-003
1.032966e-002
1.076154e-002
1.126579e-002
1.183324e-002
1.245267e-002
1.311194e-002
1.379905e-002
1.450284e-002
1.521339e-002
1.592227e-002
1.662269e-002
1.730948e-002
1.797918e-002
1.862988e-002
1.926111e-002
1.987355e-002
2.046869e-002
2.104846e-002
2.161479e-002
2.216922e-002
2.271250e-002
2.324435e-002
2.376313e-002
2.426572e-002
2.474740e-002
2.520182e-002
2.562104e-002
2.599567e-002
2.631495e-002
2.656703e-002
2.673922e-002
2.681828e-002
2.679088e-002
2.664399e-002
2.636550e-002
2.594485e-002
2.537390e-002
2.464789e-002
2.376658e-002
2.273555e-002
2.156754e-002
2.028360e-002
1.891387e-002
1.749732e-002
1.608034e-002
1.471358e-002
1.344735e-002
1.232602e-002
1.138236e-002
1.063331e-002
1.007802e-002
9.699213e-003
9.467355e-003
9.346689e-003
9.301510e-003
9.301094e-003
9.322372e-003
9.350313e-003
9.376657e-003
9.397929e-003
9.413493e-003
9.424083e-003
9.430872e-003
9.435003e-003
9.437393e-003
9.438708e-003
9.439392e-003
9.439724e-003
9.439871e-003
9.439928e-003
9.439943e-003
9.439943e-003
9.439939e-003
9.439936e-003
9.440039e-003
9.440033e-003
9.440013e-003
9.439964e-003
9.439847e-003
9.439592e-003
9.439070e-003
9.438064e-003
9.436229e-003
9.433036e-003
9.427733e-003
9.419315e-003
9.406582e-003
9.388347e-003
9.363925e-003
9.334024e-003
9.302113e-003
9.276128e-003
9.270134e-003
9.305271e-003
9.409286e-003
9.614253e-003
9.952678e-003
1.045278e-002
1.113412e-002
1.200461e-002
1.305964e-002
1.428309e-002
1.565002e-002
1.713009e-002
1.869102e-002
2.030147e-002
2.193308e-002
2.356157e-002
2.516717e-002
2.673453e-002
2.825247e-002
2.971373e-002
3.111454e-002
3.245426e-002
3.373484e-002
3.496016e-002
3.613536e-002
3.726601e-002
3.835734e-002
3.941357e-002
4.043727e-002
4.142887e-002
4.238633e-002
4.330494e-002
4.417718e-002
4.499281e-002
4.573894e-002
4.640027e-002
4.695929e-002
4.739661e-002
4.769125e-002
4.782097e-002
4.776270e-002
4.749298e-002
4.698853e-002
4.622705e-002
4.518826e-002
4.385532e-002
4.221679e-002
4.026911e-002
3.801981e-002
3.549096e-002
3.272269e-002
2.977564e-002
2.673142e-002
2.368974e-002
2.076137e-002
1.805710e-002
1.567406e-002
1.368206e-002
1.211352e-002
1.096005e-002
1.017709e-002
9.695391e-003
9.435821e-003
9.323293e-003
9.296366e-003
9.311188e-003
9.340581e-003
9.370278e-003
9.394451e-003
9.411915e-003
9.423543e-003
9.430809e-003
9.435107e-003
9.437521e-003
9.438807e-003
9.439452e-003
9.439755e-003
9.439884e-003
9.439931e-003
9.439945e-003
9.439948e-003
9.439947e-003
9.440064e-003
9.440047e-003
9.439998e-003
9.439885e-003
9.439637e-003
9.439123e-003
9.438114e-003
9.436232e-003
9.432877e-003
9.427162e-003
9.417863e-003
9.403469e-003
9.382447e-003
9.353970e-003
9.319378e-003
9.284651e-003
9.263891e-003
9.283212e-003
9.383730e-003
9.621875e-003
1.006557e-002
1.078601e-002
1.184652e-002
1.329126e-002
1.513692e-002
1.736955e-002
1.994707e-002
2.280609e-002
2.587115e-002
2.906389e-002
3.231065e-002
3.554758e-002
3.872304e-002
4.179804e-002
4.474514e-002
4.754688e-002
5.019409e-002
5.268437e-002
5.502075e-002
5.721059e-002
5.926435e-002
6.119447e-002
6.301416e-002
6.473631e-002
6.637240e-002
6.793170e-002
6.942052e-002
7.084181e-002
7.219485e-002
7.347521e-002
7.467481e-002
7.578213e-002
7.678244e-002
7.765816e-002
7.838904e-002
7.895244e-002
7.932342e-002
7.947479e-002
7.937707e-002
7.899842e-002
7.830460e-002
7.725904e-002
7.582324e-002
7.395776e-002
7.162405e-002
6.878765e-002
6.542304e-002
6.152056e-002
5.709505e-002
5.219558e-002
4.691418e-002
4.139083e-002
3.581122e-002
3.039398e-002
2.536679e-002
2.093404e-002
1.724363e-002
1.436263e-002
1.227018e-002
1.087039e-002
1.002050e-002
9.564294e-003
9.360298e-003
9.298476e-003
9.304381e-003
9.334348e-003
9.366700e-003
9.393041e-003
9.411728e-003
9.423862e-003
9.431234e-003
9.435466e-003
9.437770e-003
9.438958e-003
9.439534e-003
9.439794e-003
9.439902e-003
9.439942e-003
9.439955e-003
9.439958e-003
9.440073e-003
9.440035e-003
9.439934e-003
9.439706e-003
9.439225e-003
9.438264e-003
9.436429e-003
9.433081e-003
9.427234e-003
9.417477e-003
9.401993e-003
9.378866e-003
9.347025e-003
9.308378e-003
9.271802e-003
9.259366e-003
9.314234e-003
9.508094e-003
9.944370e-003
1.075317e-002
1.207578e-002
1.404053e-002
1.673591e-002
2.018930e-002
2.435800e-002
2.913530e-002
3.436857e-002
3.988344e-002
4.550719e-002
5.108671e-002
5.649904e-002
6.165475e-002
6.649608e-002
7.099208e-002
7.513261e-002
7.892265e-002
8.237755e-002
8.551935e-002
8.837406e-002
9.096966e-002
9.333450e-002
9.549603e-002
9.747974e-002
9.930832e-002
1.010010e-001
1.025733e-001
1.040365e-001
1.053981e-001
1.066616e-001
1.078272e-001
1.088919e-001
1.098501e-001
1.106939e-001
1.114132e-001
1.119961e-001
1.124286e-001
1.126945e-001
1.127746e-001
1.126460e-001
1.122811e-001
1.116462e-001
1.106999e-001
1.093919e-001
1.076611e-001
1.054351e-001
1.026308e-001
9.915704e-002
9.492148e-002
8.984188e-002
8.386411e-002
7.698582e-002
6.928350e-002
6.093627e-002
5.223595e-002
4.357213e-002
3.538554e-002
2.809483e-002
2.201592e-002
1.730172e-002
1.392510e-002
1.171015e-002
1.039587e-002
9.705762e-003
9.400492e-003
9.303317e-003
9.301260e-003
9.331933e-003
9.366287e-003
9.393874e-003
9.412956e-003
9.424991e-003
9.432082e-003
9.436028e-003
9.438107e-003
9.439143e-003
9.439628e-003
9.439841e-003
9.439926e-003
9.439958e-003
9.439967e-003
9.440050e-003
9.439977e-003
9.439783e-003
9.439359e-003
9.438489e-003
9.436789e-003
9.433614e-003
9.427930e-003
9.418197e-003
9.402342e-003
9.378043e-003
9.343819e-003
9.301784e-003
9.263314e-003
9.258854e-003
9.351882e-003
9.654291e-003
1.033664e-002
1.162412e-002
1.377069e-002
1.701124e-002
2.150250e-002
2.727264e-002
3.419910e-002
4.202436e-002
5.040366e-002
5.896686e-002
6.737484e-002
7.535745e-002
8.272919e-002
8.938647e-002
9.529360e-002
1.004647e-001
1.049464e-001
1.088033e-001
1.121081e-001
1.149335e-001
1.173483e-001
1.194146e-001
1.211871e-001
1.227127e-001
1.240307e-001
1.251739e-001
1.261691e-001
1.270376e-001
1.277966e-001
1.284594e-001
1.290367e-001
1.295364e-001
1.299651e-001
1.303279e-001
1.306287e-001
1.308707e-001
1.310563e-001
1.311867e-001
1.312620e-001
1.312805e-001
1.312385e-001
1.311291e-001
1.309415e-001
1.306592e-001
1.302582e-001
1.297042e-001
1.289486e-001
1.279242e-001
1.265389e-001
1.246699e-001
1.221585e-001
1.188087e-001
1.143950e-001
1.086839e-001
1.014792e-001
9.268924e-002
8.240723e-002
7.097472e-002
5.899170e-002
4.724288e-002
3.654231e-002
2.754376e-002
2.059390e-002
1.568984e-002
1.254824e-002
1.073936e-002
9.821190e-003
9.428541e-003
9.306300e-003
9.301037e-003
9.333408e-003
9.369076e-003
9.396843e-003
9.415425e-003
9.426765e-003
9.433231e-003
9.436712e-003
9.438485e-003
9.439339e-003
9.439725e-003
9.439888e-003
9.439951e-003
9.439971e-003
9.439973e-003
9.439840e-003
9.439493e-003
9.438749e-003
9.437255e-003
9.434392e-003
9.429139e-003
9.419907e-003
9.404449e-003
9.380070e-003
9.344705e-003
9.300045e-003
9.258645e-003
9.257493e-003
9.379571e-003
9.781106e-003
1.071511e-002
1.253415e-002
1.565315e-002
2.046364e-002
2.721441e-002
3.590062e-002
4.621339e-002
5.758134e-002
6.929181e-002
8.064278e-002
9.106882e-002
1.002073e-001
1.079032e-001
1.141700e-001
1.191333e-001
1.229756e-001
1.258953e-001
1.280812e-001
1.296999e-001
1.308897e-001
1.317610e-001
1.323982e-001
1.328644e-001
1.332051e-001
1.334532e-001
1.336323e-001
1.337595e-001
1.338474e-001
1.339057e-001
1.339418e-001
1.339621e-001
1.339715e-001
1.339744e-001
1.339742e-001
1.339738e-001
1.339750e-001
1.339791e-001
1.339864e-001
1.339968e-001
1.340094e-001
1.340224e-001
1.340337e-001
1.340402e-001
1.340379e-001
1.340214e-001
1.339833e-001
1.339137e-001
1.337990e-001
1.336196e-001
1.333468e-001
1.329360e-001
1.323165e-001
1.313733e-001
1.299196e-001
1.276642e-001
1.241881e-001
1.189656e-001
1.114696e-001
1.013699e-001
8.876797e-002
7.434857e-002
5.932305e-002
4.513106e-002
3.301691e-002
2.368906e-002
1.722073e-002
1.319371e-002
1.095934e-002
9.873890e-003
9.432958e-003
9.305046e-003
9.303561e-003
9.338709e-003
9.374776e-003
9.401568e-003
9.418801e-003
9.428942e-003
9.434528e-003
9.437433e-003
9.438862e-003
9.439526e-003
9.439814e-003
9.439929e-003
9.439968e-003
9.439812e-003
9.439581e-003
9.438992e-003
9.437749e-003
9.435298e-003
9.430682e-003
9.422352e-003
9.408007e-003
9.384672e-003
9.349608e-003
9.303410e-003
9.257841e-003
9.252347e-003
9.383217e-003
9.845384e-003
1.097639e-002
1.327616e-002
1.736411e-002
2.384279e-002
3.307881e-002
4.497759e-002
5.887433e-002
7.363380e-002
8.794178e-002
1.006574e-001
1.110687e-001
1.189664e-001
1.245527e-001
1.282661e-001
1.306093e-001
1.320309e-001
1.328736e-001
1.333730e-001
1.336784e-001
1.338771e-001
1.340147e-001
1.341115e-001
1.341738e-001
1.342021e-001
1.341962e-001
1.341568e-001
1.340864e-001
1.339886e-001
1.338675e-001
1.337271e-001
1.335713e-001
1.334036e-001
1.332270e-001
1.330448e-001
1.328604e-001
1.326779e-001
1.325025e-001
1.323404e-001
1.321994e-001
1.320885e-001
1.320179e-001
1.319988e-001
1.320426e-001
1.321598e-001
1.323593e-001
1.326467e-001
1.330216e-001
1.334755e-001
1.339877e-001
1.345216e-001
1.350201e-001
1.354046e-001
1.355792e-001
1.354468e-001
1.349340e-001
1.340069e-001
1.326350e-001
1.306634e-001
1.276249e-001
1.226365e-001
1.145941e-001
1.027422e-001
8.733279e-002
6.984864e-002
5.253000e-002
3.748871e-002
2.597388e-002
1.816947e-002
1.347927e-002
1.099121e-002
9.846141e-003
9.412018e-003
9.300825e-003
9.309432e-003
9.347576e-003
9.382781e-003
9.407465e-003
9.422653e-003
9.431254e-003
9.435822e-003
9.438114e-003
9.439201e-003
9.439685e-003
9.439884e-003
9.439953e-003
9.439524e-003
9.439144e-003
9.438189e-003
9.436203e-003
9.432347e-003
9.425198e-003
9.412530e-003
9.391248e-003
9.358004e-003
9.311848e-003
9.261801e-003
9.244528e-003
9.358925e-003
9.821999e-003
1.103828e-002
1.365001e-002
1.850506e-002
2.647100e-002
3.807683e-002
5.309393e-002
7.030689e-002
8.771985e-002
1.032045e-001
1.152672e-001
1.234954e-001
1.284569e-001
1.311961e-001
1.327021e-001
1.336220e-001
1.342421e-001
1.346169e-001
1.347174e-001
1.345242e-001
1.340536e-001
1.333490e-001
1.324629e-001
1.314456e-001
1.303402e-001
1.291814e-001
1.279959e-001
1.268034e-001
1.256177e-001
1.244475e-001
1.232980e-001
1.221717e-001
1.210701e-001
1.199944e-001
1.189471e-001
1.179321e-001
1.169558e-001
1.160274e-001
1.151588e-001
1.143652e-001
1.136649e-001
1.130790e-001
1.126313e-001
1.123483e-001
1.122587e-001
1.123935e-001
1.127849e-001
1.134665e-001
1.144714e-001
1.158304e-001
1.175684e-001
1.196972e-001
1.222053e-001
1.250415e-001
1.280928e-001
1.311594e-001
1.339354e-001
1.360181e-001
1.369820e-001
1.365482e-001
1.347802e-001
1.320036e-001
1.281626e-001
1.220960e-001
1.119105e-001
9.662889e-002
7.751241e-002
5.762469e-002
4.014850e-002
2.696059e-002
1.830400e-002
1.332694e-002
1.082565e-002
9.747692e-003
9.374629e-003
9.297742e-003
9.319416e-003
9.359390e-003
9.392230e-003
9.413851e-003
9.426549e-003
9.433458e-003
9.436992e-003
9.438700e-003
9.439478e-003
9.439806e-003
9.439922e-003
9.439061e-003
9.438463e-003
9.436976e-003
9.433928e-003
9.428095e-003
9.417451e-003
9.398980e-003
9.368949e-003
9.324824e-003
9.271671e-003
9.238739e-003
9.315492e-003
9.716876e-003
1.087746e-002
1.354326e-002
1.877813e-002
2.775715e-002
4.125774e-002
5.895819e-002
7.897133e-002
9.818283e-002
1.135489e-001
1.236332e-001
1.291547e-001
1.320187e-001
1.337849e-001
1.349534e-001
1.353264e-001
1.346588e-001
1.329528e-001
1.304131e-001
1.273156e-001
1.239168e-001
1.204178e-001
1.169584e-001
1.136266e-001
1.104719e-001
1.075171e-001
1.047673e-001
1.022166e-001
9.985237e-002
9.765780e-002
9.561469e-002
9.370500e-002
9.191227e-002
9.022271e-002
8.862587e-002
8.711522e-002
8.568829e-002
8.434677e-002
8.309633e-002
8.194649e-002
8.091029e-002
8.000416e-002
7.924771e-002
7.866371e-002
7.827828e-002
7.812121e-002
7.822659e-002
7.863367e-002
7.938793e-002
8.054247e-002
8.215927e-002
8.431021e-002
8.707687e-002
9.054761e-002
9.480943e-002
9.993013e-002
1.059249e-001
1.126997e-001
1.199672e-001
1.271451e-001
1.332940e-001
1.372341e-001
1.380309e-001
1.357697e-001
1.316262e-001
1.260607e-001
1.170628e-001
1.020938e-001
8.169780e-002
5.973408e-002
4.051844e-002
2.643448e-002
1.759209e-002
1.277989e-002
1.051272e-002
9.610917e-003
9.335622e-003
9.300264e-003
9.333622e-003
9.373101e-003
9.402131e-003
9.420075e-003
9.430129e-003
9.435381e-003
9.437965e-003
9.439164e-003
9.439680e-003
9.439866e-003
9.438364e-003
9.437461e-003
9.435235e-003
9.430731e-003
9.422230e-003
9.406987e-003
9.381205e-003
9.341152e-003
9.287808e-003
9.240512e-003
9.269889e-003
9.564553e-003
1.054149e-002
1.298114e-002
1.810067e-002
2.738727e-002
4.199050e-002
6.169184e-002
8.402056e-002
1.046107e-001
1.194470e-001
1.276508e-001
1.316902e-001
1.342436e-001
1.357227e-001
1.351692e-001
1.320934e-001
1.269102e-001
1.204501e-001
1.134989e-001
1.066156e-001
1.001282e-001
9.419381e-002
8.886071e-002
8.411573e-002
7.991511e-002
7.620278e-002
7.292023e-002
7.001124e-002
6.742390e-002
6.511129e-002
6.303175e-002
6.114894e-002
5.943182e-002
5.785469e-002
5.639705e-002
5.504341e-002
5.378304e-002
5.260960e-002
5.152074e-002
5.051768e-002
4.960480e-002
4.878930e-002
4.808091e-002
4.749181e-002
4.703667e-002
4.673290e-002
4.660121e-002
4.666645e-002
4.695883e-002
4.751566e-002
4.838372e-002
4.962232e-002
5.130733e-002
5.353603e-002
5.643258e-002
6.015303e-002
6.488735e-002
7.085331e-002
7.827206e-002
8.730785e-002
9.794626e-002
1.097874e-001
1.217717e-001
1.319950e-001
1.380452e-001
1.384122e-001
1.342768e-001
1.282198e-001
1.194222e-001
1.041386e-001
8.225282e-002
5.861282e-002
3.853765e-002
2.451502e-002
1.621230e-002
1.198420e-002
1.013933e-002
9.475704e-003
9.308546e-003
9.310771e-003
9.351064e-003
9.387360e-003
9.411548e-003
9.425625e-003
9.433155e-003
9.436929e-003
9.438710e-003
9.439491e-003
9.439777e-003
9.437372e-003
9.436058e-003
9.432847e-003
9.426424e-003
9.414476e-003
9.393477e-003
9.359111e-003
9.309121e-003
9.253061e-003
9.238682e-003
9.411594e-003
1.012752e-002
1.211775e-002
1.664135e-002
2.542886e-002
4.010260e-002
6.088974e-002
8.514679e-002
1.073443e-001
1.222370e-001
1.294962e-001
1.332615e-001
1.357489e-001
1.352455e-001
1.302177e-001
1.213920e-001
1.106153e-001
9.954439e-002
8.920165e-002
8.004930e-002
7.219385e-002
6.555837e-002
5.999155e-002
5.532633e-002
5.140706e-002
4.809948e-002
4.529217e-002
4.289419e-002
4.083168e-002
3.904447e-002
3.748329e-002
3.610771e-002
3.488461e-002
3.378708e-002
3.279361e-002
3.188742e-002
3.105588e-002
3.029000e-002
2.958398e-002
2.893472e-002
2.834144e-002
2.780533e-002
2.732928e-002
2.691766e-002
2.657630e-002
2.631248e-002
2.613520e-002
2.605553e-002
2.608730e-002
2.624802e-002
2.656028e-002
2.705371e-002
2.776783e-002
2.875600e-002
3.009111e-002
3.187340e-002
3.424105e-002
3.738374e-002
4.155820e-002
4.710177e-002
5.443217e-002
6.400804e-002
7.620201e-002
9.101796e-002
1.076043e-001
1.236814e-001
1.354763e-001
1.394205e-001
1.358259e-001
1.290697e-001
1.196997e-001
1.030444e-001
7.918046e-002
5.440183e-002
3.456814e-002
2.162001e-002