# vtk DataFile Version 3.0
vtk output
ASCII
DATASET STRUCTURED_POINTS
DIMENSIONS 100 100 1
SPACING 1 1 1
ORIGIN 0 0 0
POINT_DATA 10000
SCALARS SFBox_profile double
LOOKUP_TABLE default 
0.000000e+000
0.000000e+000
0.000000e+000
0.000000e+000
0.000000e+000
0.000000e+000
0.000000e+000
0.000000e+000
0.000000e+000
0.000000e+000
0.000000e+000
0.000000e+000
0.000000e+000
0.000000e+000
0.000000e+000
0.000000e+000
0.000000e+000
0.000000e+000
0.000000e+000
0.000000e+000
0.000000e+000
0.000000e+000
0.000000e+000
0.000000e+000
0.000000e+000
0.000000e+000
0.000000e+000
0.000000e+000
0.000000e+000
0.000000e+000
0.000000e+000
0.000000e+000
0.000000e+000
0.000000e+000
0.000000e+000
0.000000e+000
0.000000e+000
0.000000e+000
0.000000e+000
0.000000e+000
0.000000e+000
0.000000e+000
0.000000e+000
0.000000e+000
0.000000e+000
0.000000e+000
0.000000e+000
0.000000e+000
0.000000e+000
0.000000e+000
0.000000e+000
0.000000e+000
0.000000e+000
0.000000e+000
0.000000e+000
0.000000e+000
0.000000e+000
0.000000e+000
0.000000e+000
0.000000e+000
0.000000e+000
0.000000e+000
0.000000e+000
0.000000e+000
0.000000e+000
0.000000e+000
0.000000e+000
0.000000e+000
0.000000e+000
0.000000e+000
0.000000e+000
0.000000e+000
0.000000e+000
0.000000e+000
0.000000e+000
0.000000e+000
0.000000e+000
0.000000e+000
0.000000e+000
0.000000e+000
0.000000e+000
0.000000e+000
0.000000e+000
0.000000e+000
0.000000e+000
0.000000e+000
0.000000e+000
0.000000e+000
0.000000e+000
0.000000e+000
0.000000e+000
0.000000e+000
0.000000e+000
0.000000e+000
0.000000e+000
0.000000e+000
0.000000e+000
0.000000e+000
0.000000e+000
0.000000e+000
2.012256e-008
1.855776e-008
1.456598e-008
7.446957e-009
-2.089019e-009
-1.147256e-008
-1.713795e-008
-1.631146e-008
-8.677157e-009
3.113510e-009
1.445272e-008
2.079576e-008
1.963767e-008
1.148270e-008
-5.626033e-010
-1.223325e-008
-1.981707e-008
-2.138093e-008
-1.711903e-008
-8.881985e-009
7.424278e-010
9.351038e-009
1.532921e-008
1.802979e-008
1.760945e-008
1.470369e-008
1.011861e-008
4.642998e-009
-1.011473e-009
-6.202279e-009
-1.035595e-008
-1.301782e-008
-1.393983e-008
-1.315552e-008
-1.098900e-008
-7.976028e-009
-4.720108e-009
-1.737795e-009
6.499699e-010
2.347950e-009
3.441352e-009
4.107012e-009
4.522682e-009
4.806767e-009
5.001009e-009
5.089260e-009
5.034321e-009
4.813715e-009
4.441333e-009
3.970549e-009
3.481710e-009
3.061038e-009
2.778669e-009
2.671757e-009
2.735614e-009
2.922985e-009
3.149830e-009
3.305523e-009
3.265864e-009
2.907935e-009
2.126089e-009
8.481458e-010
-9.497141e-010
-3.231577e-009
-5.896448e-009
-8.780751e-009
-1.166850e-008
-1.430642e-008
-1.642017e-008
-1.772946e-008
-1.796406e-008
-1.688698e-008
-1.433230e-008
-1.026176e-008
-4.835667e-009
1.518684e-009
8.072391e-009
1.383346e-008
1.768978e-008
1.865542e-008
1.617033e-008
1.036191e-008
2.170358e-009
-6.727679e-009
-1.421065e-008
-1.819025e-008
-1.721474e-008
-1.108114e-008
-1.244449e-009
9.266475e-009
1.665326e-008
1.779986e-008
1.184383e-008
1.015808e-009
-9.964682e-009
-1.595530e-008
-1.401434e-008
-5.132829e-009
6.062768e-009
1.366532e-008
1.702905e-008
1.326334e-008
6.901037e-009
-9.660733e-011
-5.617774e-009
-8.105005e-009
-7.084732e-009
-3.320405e-009
1.490862e-009
5.382911e-009
6.889851e-009
5.599545e-009
2.253420e-009
-1.641343e-009
-4.495187e-009
-5.294034e-009
-3.945429e-009
-1.198677e-009
1.767375e-009
3.861048e-009
4.465803e-009
3.568032e-009
1.631435e-009
-6.723194e-010
-2.735877e-009
-4.185761e-009
-4.913010e-009
-4.995325e-009
-4.578690e-009
-3.785590e-009
-2.685926e-009
-1.325310e-009
2.245297e-010
1.833701e-009
3.322902e-009
4.507771e-009
5.253357e-009
5.510152e-009
5.316093e-009
4.767997e-009
3.979773e-009
3.047484e-009
2.033767e-009
9.724728e-010
-1.147022e-010
-1.200740e-009
-2.243248e-009
-3.184488e-009
-3.959221e-009
-4.505743e-009
-4.775758e-009
-4.740453e-009
-4.392165e-009
-3.742470e-009
-2.818382e-009
-1.658393e-009
-3.096640e-010
1.173086e-009
2.727318e-009
4.281948e-009
5.757454e-009
7.068123e-009
8.127322e-009
8.855540e-009
9.189321e-009
9.088047e-009
8.535892e-009
7.538697e-009
6.118791e-009
4.312977e-009
2.178186e-009
-1.943501e-010
-2.661085e-009
-5.013834e-009
-6.984545e-009
-8.275280e-009
-8.613526e-009
-7.823647e-009
-5.899608e-009
-3.063099e-009
2.104482e-010
3.223721e-009
5.181743e-009
5.428936e-009
3.759671e-009
6.694128e-010
-2.647587e-009
-4.689061e-009
-4.350868e-009
-1.614262e-009
2.239361e-009
5.159682e-009
5.434156e-009
2.758009e-009
-1.443925e-009
-4.760454e-009
-5.232708e-009
-2.600692e-009
1.479665e-009
4.446273e-009
8.162686e-009
2.818328e-009
-4.496009e-009
-9.107949e-009
-7.905011e-009
-1.223689e-009
7.331222e-009
1.294957e-008
1.228808e-008
5.233725e-009
-5.114741e-009
-1.407366e-008
-1.763164e-008
-1.418718e-008
-5.044747e-009
6.363634e-009
1.600237e-008
2.076405e-008
1.941890e-008
1.274293e-008
2.946944e-009
-7.243832e-009
-1.546748e-008
-2.028012e-008
-2.129285e-008
-1.896745e-008
-1.424446e-008
-8.182457e-009
-1.722429e-009
4.399379e-009
9.638471e-009
1.360340e-008
1.604507e-008
1.688242e-008
1.623356e-008
1.441052e-008
1.185576e-008
9.034209e-009
6.321204e-009
3.930587e-009
1.906921e-009
1.758479e-010
-1.377019e-009
-2.834764e-009
-4.211158e-009
-5.452681e-009
-6.469924e-009
-7.178893e-009
-7.533885e-009
-7.541372e-009
-7.253797e-009
-6.749255e-009
-6.105982e-009
-5.379794e-009
-4.589733e-009
-3.713802e-009
-2.694034e-009
-1.448788e-009
1.101670e-010
2.058055e-009
4.437317e-009
7.240563e-009
1.039969e-008
1.378404e-008
1.720808e-008
2.044584e-008
2.324651e-008
2.534578e-008
2.647190e-008
2.635114e-008
2.472315e-008
2.137700e-008
1.621308e-008
9.325916e-009
1.091257e-009
-7.769074e-009
-1.617843e-008
-2.279121e-008
-2.620705e-008
-2.532003e-008
-1.974857e-008
-1.020800e-008
1.373912e-009
1.217327e-008
1.924300e-008
2.053296e-008
1.574918e-008
6.623854e-009
-3.616123e-009
-1.142648e-008
-1.428813e-008
-1.163779e-008
-4.996548e-009
2.729474e-009
8.451116e-009
1.009627e-008
7.345798e-009
1.654656e-009
-4.411572e-009
-8.244508e-009
-7.986522e-009
-1.105087e-008
-1.377920e-008
-1.195039e-008
-3.858350e-009
7.952007e-009
1.779691e-008
2.013107e-008
1.290127e-008
-1.091555e-009
-1.556801e-008
-2.396947e-008
-2.262321e-008
-1.224904e-008
2.731318e-009
1.643991e-008
2.407454e-008
2.358152e-008
1.595129e-008
4.321116e-009
-7.493794e-009
-1.635709e-008
-2.059918e-008
-2.011594e-008
-1.594247e-008
-9.608932e-009
-2.573281e-009
4.093748e-009
9.751302e-009
1.405920e-008
1.682114e-008
1.790844e-008
1.728990e-008
1.511498e-008
1.176562e-008
7.816720e-009
3.905867e-009
5.680279e-010
-1.889600e-009
-3.421310e-009
-4.182016e-009
-4.411859e-009
-4.323356e-009
-4.035571e-009
-3.569979e-009
-2.893552e-009
-1.978918e-009
-8.523420e-010
3.874945e-010
1.581769e-009
2.545320e-009
3.107880e-009
3.150029e-009
2.626098e-009
1.571839e-009
9.904106e-011
-1.618563e-009
-3.363874e-009
-4.896986e-009
-5.977152e-009
-6.386533e-009
-5.955110e-009
-4.583865e-009
-2.261247e-009
9.319188e-010
4.830668e-009
9.203431e-009
1.377048e-008
1.821448e-008
2.217950e-008
2.526377e-008
2.701936e-008
2.697579e-008
2.470244e-008
1.991841e-008
1.264540e-008
3.376222e-009
-6.802199e-009
-1.622290e-008
-2.287919e-008
-2.491744e-008
-2.128855e-008
-1.233688e-008
-4.667850e-011
1.226561e-008
2.083768e-008
2.271161e-008
1.693688e-008
5.237167e-009
-8.258798e-009
-1.834258e-008
-2.078681e-008
-1.435396e-008
-1.737342e-009
1.130287e-008
1.851447e-008
1.631700e-008
5.852044e-009
-7.392765e-009
-1.639824e-008
-2.759976e-008
-2.385848e-008
-1.617722e-008
-5.165287e-009
6.786286e-009
1.574757e-008
1.798422e-008
1.221179e-008
8.113902e-010
-1.099110e-008
-1.766417e-008
-1.618287e-008
-7.499273e-009
4.095021e-009
1.323582e-008
1.606500e-008
1.180761e-008
2.739799e-009
-7.170194e-009
-1.410055e-008
-1.581309e-008
-1.218738e-008
-4.849785e-009
3.740645e-009
1.127290e-008
1.625786e-008
1.823673e-008
1.758033e-008
1.507334e-008
1.150828e-008
7.449211e-009
3.207788e-009
-1.035310e-009
-5.085127e-009
-8.665547e-009
-1.146254e-008
-1.323441e-008
-1.390956e-008
-1.360926e-008
-1.258440e-008
-1.110553e-008
-9.365852e-009
-7.441600e-009
-5.318219e-009
-2.957695e-009
-3.684543e-010
2.353558e-009
5.024576e-009
7.406147e-009
9.253647e-009
1.036160e-008
1.059368e-008
9.893552e-009
8.279572e-009
5.829687e-009
2.663847e-009
-1.070199e-009
-5.204357e-009
-9.550936e-009
-1.390000e-008
-1.801884e-008
-2.165877e-008
-2.457172e-008
-2.653342e-008
-2.736584e-008
-2.694964e-008
-2.522150e-008
-2.215997e-008
-1.777158e-008
-1.209325e-008
-5.223285e-009
2.616926e-009
1.100212e-008
1.923114e-008
2.630639e-008
3.101463e-008
3.214519e-008
2.883830e-008
2.098957e-008
9.572103e-009
-3.290703e-009
-1.463559e-008
-2.138883e-008
-2.139414e-008
-1.443287e-008
-2.775964e-009
9.194286e-009
1.647879e-008
1.569097e-008
7.016686e-009
-5.330828e-009
-1.485585e-008
-1.618021e-008
-8.299096e-009
4.424177e-009
1.451792e-008
1.584821e-008
7.539204e-009
-5.280213e-009
-1.459800e-008
-4.121866e-008
-2.929399e-008
-1.040961e-008
7.712534e-009
1.802502e-008
1.726018e-008
7.279596e-009
-5.970053e-009
-1.540144e-008
-1.620738e-008
-8.091361e-009
4.756060e-009
1.585145e-008
1.961764e-008
1.398286e-008
1.181546e-009
-1.346382e-008
-2.401471e-008
-2.639018e-008
-1.977366e-008
-6.534115e-009
9.043137e-009
2.249001e-008
3.060594e-008
3.216739e-008
2.783149e-008
1.947678e-008
9.355676e-009
-6.054239e-010
-9.169328e-009
-1.580141e-008
-2.045577e-008
-2.330988e-008
-2.458677e-008
-2.451155e-008
-2.335572e-008
-2.148040e-008
-1.931163e-008
-1.724377e-008
-1.552404e-008
-1.418682e-008
-1.307695e-008
-1.194989e-008
-1.059770e-008
-8.942651e-009
-7.063583e-009
-5.155772e-009
-3.453080e-009
-2.150087e-009
-1.352812e-009
-1.068618e-009
-1.229166e-009
-1.731179e-009
-2.478985e-009
-3.417312e-009
-4.548712e-009
-5.934445e-009
-7.680164e-009
-9.909091e-009
-1.272691e-008
-1.618494e-008
-2.025041e-008
-2.479292e-008
-2.959178e-008
-3.436117e-008
-3.878089e-008
-4.251713e-008
-4.522230e-008
-4.651584e-008
-4.596246e-008
-4.307456e-008
-3.736672e-008
-2.848094e-008
-1.638081e-008
-1.582294e-009
1.464746e-008
3.022297e-008
4.241444e-008
4.834276e-008
4.579005e-008
3.417125e-008
1.532784e-008
-6.326239e-009
-2.471003e-008
-3.405669e-008
-3.136407e-008
-1.814800e-008
-3.076528e-010
1.429910e-008
1.963288e-008
1.458371e-008
3.456228e-009
-6.690677e-009
-1.033660e-008
-6.695103e-009
3.009911e-010
5.155916e-009
4.808176e-009
5.710293e-010
-3.321320e-009
-3.857579e-008
-2.248159e-008
6.871037e-010
1.826194e-008
2.133307e-008
9.690573e-009
-8.518380e-009
-2.191053e-008
-2.248012e-008
-9.836843e-009
9.070301e-009
2.413908e-008
2.756284e-008
1.758289e-008
-1.118858e-009
-2.012178e-008
-3.134795e-008
-3.045943e-008
-1.819434e-008
5.640012e-010
1.918137e-008
3.189156e-008
3.558898e-008
3.031645e-008
1.858422e-008
4.053083e-009
-9.801878e-009
-2.059485e-008
-2.732708e-008
-3.016543e-008
-2.994676e-008
-2.768071e-008
-2.423965e-008
-2.028205e-008
-1.632773e-008
-1.284870e-008
-1.027493e-008
-8.904902e-009
-8.792356e-009
-9.702262e-009
-1.118467e-008
-1.274114e-008
-1.400436e-008
-1.484784e-008
-1.538372e-008
-1.586389e-008
-1.653949e-008
-1.754176e-008
-1.882538e-008
-2.018250e-008
-2.130820e-008
-2.188527e-008
-2.165970e-008
-2.048990e-008
-1.836649e-008
-1.540908e-008
-1.184951e-008
-8.009069e-009
-4.271781e-009
-1.051593e-009
1.249001e-009
2.286747e-009
1.822515e-009
-2.501978e-010
-3.903018e-009
-8.995106e-009
-1.530504e-008
-2.254960e-008
-3.037100e-008
-3.828805e-008
-4.562568e-008
-5.145433e-008
-5.458359e-008
-5.366121e-008
-4.742368e-008
-3.511619e-008
-1.703387e-008
4.971611e-009
2.729271e-008
4.499178e-008
5.303613e-008
4.816342e-008
3.071120e-008
5.421628e-009
-1.958961e-008
-3.571578e-008
-3.751111e-008
-2.530309e-008
-5.213130e-009
1.367473e-008
2.362439e-008
2.174143e-008
1.081104e-008
-2.772808e-009
-1.256617e-008
-1.503260e-008
-1.049202e-008
-2.069807e-009
6.249190e-009
1.124479e-008
-1.572208e-008
-3.657045e-009
1.160840e-008
1.871531e-008
1.194336e-008
-4.695498e-009
-2.019049e-008
-2.400513e-008
-1.304930e-008
6.433395e-009
2.296508e-008
2.691121e-008
1.598657e-008
-3.876070e-009
-2.225029e-008
-2.991507e-008
-2.327165e-008
-5.470400e-009
1.573050e-008
3.179364e-008
3.691038e-008
2.978605e-008
1.336588e-008
-6.917006e-009
-2.536995e-008
-3.783763e-008
-4.256754e-008
-4.010818e-008
-3.254020e-008
-2.247696e-008
-1.222546e-008
-3.334970e-009
3.443662e-009
7.931483e-009
1.023937e-008
1.059518e-008
9.322360e-009
6.894481e-009
3.947026e-009
1.175882e-009
-8.530814e-010
-1.886923e-009
-2.060343e-009
-1.820243e-009
-1.736355e-009
-2.284586e-009
-3.690146e-009
-5.877838e-009
-8.525376e-009
-1.117849e-008
-1.337579e-008
-1.474303e-008
-1.503886e-008
-1.415481e-008
-1.208627e-008
-8.895138e-009
-4.682716e-009
4.166203e-010
6.221246e-009
1.247876e-008
1.885069e-008
2.492071e-008
3.023008e-008
3.432889e-008
3.682137e-008
3.738601e-008
3.576529e-008
3.173810e-008
2.510137e-008
1.569113e-008
3.468182e-009
-1.131873e-008
-2.790335e-008
-4.476096e-008
-5.947453e-008
-6.888242e-008
-6.967441e-008
-5.946836e-008
-3.812970e-008
-8.788299e-009
2.213677e-008
4.637146e-008
5.652240e-008
4.917119e-008
2.689005e-008
-2.059569e-009
-2.663457e-008
-3.751502e-008
-3.122897e-008
-1.185991e-008
1.071329e-008
2.545373e-008
2.556609e-008
1.193800e-008
-7.324842e-009
-2.126915e-008
-2.216517e-008
-9.894915e-009
7.986882e-009
2.071272e-008
2.057031e-008
2.047733e-008
1.694314e-008
7.152339e-009
-7.031964e-009
-1.871673e-008
-2.033146e-008
-9.529124e-009
8.071329e-009
2.175927e-008
2.247016e-008
8.770854e-009
-1.195532e-008
-2.780727e-008
-2.925996e-008
-1.440244e-008
1.029840e-008
3.363026e-008
4.521868e-008
4.003060e-008
1.988552e-008
-8.123634e-009
-3.499175e-008
-5.320267e-008
-5.887535e-008
-5.220756e-008
-3.652410e-008
-1.662764e-008
2.834986e-009
1.850310e-008
2.874273e-008
3.347765e-008
3.366248e-008
3.069782e-008
2.601307e-008
2.088932e-008
1.644269e-008
1.362189e-008
1.312013e-008
1.521502e-008
1.964237e-008
2.561619e-008
3.202939e-008
3.776680e-008
4.200271e-008
4.436932e-008
4.495260e-008
4.415006e-008
4.247149e-008
4.036479e-008
3.811663e-008
3.583711e-008
3.350791e-008
3.106217e-008
2.846709e-008
2.578877e-008
2.322558e-008
2.110164e-008
1.981810e-008
1.977034e-008
2.125222e-008
2.437659e-008
2.903798e-008
3.492699e-008
4.158358e-008
4.845999e-008
5.496180e-008
6.044707e-008
6.418262e-008
6.527833e-008
6.264487e-008
5.504724e-008
4.134164e-008
2.095449e-008
-5.439604e-009
-3.525475e-008
-6.372604e-008
-8.445598e-008
-9.098912e-008
-7.917312e-008
-4.951614e-008
-8.397550e-009
3.287581e-008
6.143741e-008
6.776737e-008
5.016841e-008
1.647113e-008
-1.854956e-008
-3.959406e-008
-3.832850e-008
-1.790702e-008
8.544804e-009
2.532849e-008
2.346992e-008
6.125333e-009
-1.372336e-008
-2.212898e-008
-1.373531e-008
4.670366e-009
1.924942e-008
5.466112e-008
3.920694e-008
1.405103e-008
-1.102236e-008
-2.575910e-008
-2.411286e-008
-7.879686e-009
1.332873e-008
2.674154e-008
2.363097e-008
4.780775e-009
-1.944897e-008
-3.484239e-008
-3.148763e-008
-9.483983e-009
2.105930e-008
4.543173e-008
5.178772e-008
3.657729e-008
5.495135e-009
-2.982832e-008
-5.715112e-008
-6.826108e-008
-6.117558e-008
-3.962733e-008
-1.073249e-008
1.783725e-008
4.009822e-008
5.289257e-008
5.592975e-008
5.106749e-008
4.127605e-008
2.968026e-008
1.892815e-008
1.094349e-008
6.948504e-009
7.563344e-009
1.283776e-008
2.220512e-008
3.446916e-008
4.795126e-008
6.083111e-008
7.158091e-008
7.931824e-008
8.393394e-008
8.596088e-008
8.626565e-008
8.570450e-008
8.486874e-008
8.397970e-008
8.292179e-008
8.135799e-008
7.886627e-008
7.505590e-008
6.965160e-008
6.255254e-008
5.387599e-008
4.398496e-008
3.348608e-008
2.318139e-008
1.396896e-008
6.709466e-009
2.094843e-009
5.584459e-010
2.250562e-009
7.076285e-009
1.476777e-008
2.494763e-008
3.713535e-008
5.065545e-008
6.443440e-008
7.673638e-008
8.498109e-008
8.586813e-008
7.602632e-008
5.324826e-008
1.805920e-008
-2.499288e-008
-6.715903e-008
-9.711887e-008
-1.044974e-007
-8.435117e-008
-4.073137e-008
1.288851e-008
5.763457e-008
7.689380e-008
6.434498e-008
2.788306e-008
-1.363985e-008
-4.004565e-008
-4.074294e-008
-2.022895e-008
5.637846e-009
2.039869e-008
1.754312e-008
3.528498e-009
-8.600997e-009
-9.802156e-009
-1.504905e-009
6.878394e-009
6.959374e-008
4.305183e-008
4.334122e-009
-2.610053e-008
-3.342493e-008
-1.675503e-008
1.083509e-008
3.055404e-008
2.937967e-008
7.825403e-009
-2.064657e-008
-3.801885e-008
-3.264189e-008
-6.097441e-009
2.781375e-008
5.090330e-008
5.037425e-008
2.509288e-008
-1.453206e-008
-5.218174e-008
-7.323866e-008
-7.052865e-008
-4.601727e-008
-8.610732e-009
3.013580e-008
6.022438e-008
7.583981e-008
7.597730e-008
6.350966e-008
4.349099e-008
2.142853e-008
1.989107e-009
-1.167786e-008
-1.804550e-008
-1.694240e-008
-9.171953e-009
3.782591e-009
1.992148e-008
3.686605e-008
5.211858e-008
6.349374e-008
6.960847e-008
7.021777e-008
6.622477e-008
5.934480e-008
5.156492e-008
4.461489e-008
3.962577e-008
3.704121e-008
3.673393e-008
3.821836e-008
4.085222e-008
4.396325e-008
4.689302e-008
4.899109e-008
4.960990e-008
4.814106e-008
4.410674e-008
3.728438e-008
2.781759e-008
1.626085e-008
3.528189e-009
-9.245989e-009
-2.088923e-008
-3.035628e-008
-3.682526e-008
-3.969755e-008
-3.850759e-008
-3.278917e-008
-2.199251e-008
-5.583224e-009
1.656172e-008
4.345683e-008
7.221227e-008
9.757378e-008
1.123518e-007
1.091450e-007
8.325933e-008
3.595334e-008
-2.357921e-008
-7.920734e-008
-1.126541e-007
-1.109731e-007
-7.350131e-008
-1.421995e-008
4.300083e-008
7.505106e-008
7.093946e-008
3.730455e-008
-5.651394e-009
-3.575566e-008
-4.096693e-008
-2.453188e-008
-4.942889e-010
1.653452e-008
1.990612e-008
1.247469e-008
1.695618e-009
-6.547278e-009
-1.044286e-008
5.603402e-008
2.883839e-008
-7.494968e-009
-2.953746e-008
-2.473555e-008
3.406862e-010
2.535808e-008
3.100636e-008
1.255608e-008
-1.715122e-008
-3.688071e-008
-3.159668e-008
-2.529764e-009
3.354852e-008
5.470914e-008
4.687464e-008
1.158014e-008
-3.538154e-008
-7.264035e-008
-8.376576e-008
-6.411365e-008
-2.138681e-008
2.912741e-008
7.143645e-008
9.450001e-008
9.476774e-008
7.554616e-008
4.440260e-008
1.011576e-008
-1.973865e-008
-4.013113e-008
-4.891551e-008
-4.645805e-008
-3.490556e-008
-1.740179e-008
2.531297e-009
2.138204e-008
3.590332e-008
4.339806e-008
4.211878e-008
3.168382e-008
1.328297e-008
-1.051896e-008
-3.638374e-008
-6.099838e-008
-8.176925e-008
-9.718250e-008
-1.067763e-007
-1.108366e-007
-1.100033e-007
-1.049543e-007
-9.624829e-008
-8.433109e-008
-6.965205e-008
-5.281949e-008
-3.472741e-008
-1.659830e-008
9.035608e-011
1.379546e-008
2.317190e-008
2.733452e-008
2.603466e-008
1.969367e-008
9.285236e-009
-3.891877e-009
-1.847577e-008
-3.324675e-008
-4.718452e-008
-5.931310e-008
-6.834898e-008
-7.230523e-008
-6.835210e-008
-5.329105e-008
-2.485350e-008
1.635808e-008
6.501952e-008
1.105040e-007
1.387177e-007
1.366878e-007
9.872215e-008
3.138992e-008
-4.594627e-008
-1.069054e-007
-1.288304e-007
-1.037492e-007
-4.349679e-008
2.478048e-008
7.136538e-008
7.850821e-008
4.872934e-008
2.174524e-009
-3.529552e-008
-4.619138e-008
-2.961932e-008
4.284776e-010
2.470966e-008
3.002200e-008
1.575430e-008
-7.239559e-009
-2.390485e-008
1.741163e-008
1.617024e-009
-1.574084e-008
-1.855754e-008
-3.044721e-009
1.836966e-008
2.692157e-008
1.316138e-008
-1.442284e-008
-3.492783e-008
-3.058674e-008
-5.416981e-010
3.737105e-008
5.796755e-008
4.506497e-008
1.853212e-009
-5.088111e-008
-8.662262e-008
-8.723930e-008
-5.134039e-008
6.624902e-009
6.450072e-008
1.025451e-007
1.105501e-007
8.963476e-008
4.940058e-008
2.916374e-009
-3.792515e-008
-6.520537e-008
-7.574274e-008
-7.043951e-008
-5.299895e-008
-2.857831e-008
-2.663479e-009
1.972574e-008
3.449749e-008
3.871450e-008
3.074895e-008
1.047887e-008
-2.052776e-008
-5.905202e-008
-1.006865e-007
-1.407166e-007
-1.751516e-007
-2.015153e-007
-2.191060e-007
-2.286948e-007
-2.318717e-007
-2.303447e-007
-2.254312e-007
-2.178355e-007
-2.076724e-007
-1.946386e-007
-1.782454e-007
-1.580639e-007
-1.339649e-007
-1.063254e-007
-7.615741e-008
-4.509787e-008
-1.522765e-008
1.125672e-008
3.243412e-008
4.699878e-008
5.444835e-008
5.506147e-008
4.965986e-008
3.921436e-008
2.443665e-008
5.579611e-009
-1.731556e-008
-4.361811e-008
-7.094651e-008
-9.422242e-008
-1.057670e-007
-9.713663e-008
-6.272520e-008
-4.052545e-009
6.739555e-008
1.311653e-007
1.638774e-007
1.489846e-007
8.614019e-008
-5.143266e-009
-9.111626e-008
-1.377476e-007
-1.269469e-007
-6.645492e-008
1.294254e-008
7.266665e-008
8.644697e-008
5.398797e-008
-1.048680e-010
-4.190289e-008
-4.887655e-008
-2.274883e-008
1.372535e-008
3.364085e-008
2.472183e-008
-3.095071e-009
-2.635644e-008
-3.151388e-008
-2.765420e-008
-1.646220e-008
2.549055e-009
2.157428e-008
2.767471e-008
1.344651e-008
-1.405262e-008
-3.538031e-008
-3.211648e-008
-1.782644e-009
3.784814e-008
5.940045e-008
4.437713e-008
-3.602550e-009
-5.994160e-008
-9.347101e-008
-8.436987e-008
-3.457106e-008
3.449545e-008
9.389800e-008
1.211447e-007
1.088057e-007
6.487897e-008
6.710628e-009
-4.719747e-008
-8.350758e-008
-9.663051e-008
-8.796503e-008
-6.340442e-008
-3.069993e-008
2.467765e-009
2.960229e-008
4.593115e-008
4.860561e-008
3.669525e-008
1.107773e-008
-2.568967e-008
-6.952480e-008
-1.151545e-007
-1.568150e-007
-1.893253e-007
-2.092465e-007
-2.156626e-007
-2.102298e-007
-1.964803e-007
-1.787032e-007
-1.608616e-007
-1.458863e-007
-1.354376e-007
-1.300122e-007
-1.291855e-007
-1.318320e-007
-1.362763e-007
-1.404287e-007
-1.419960e-007
-1.388160e-007
-1.292828e-007
-1.127457e-007
-8.973473e-008
-6.191244e-008
-3.174268e-008
-1.960735e-009
2.501191e-008
4.754066e-008
6.496953e-008
7.739787e-008
8.502546e-008
8.727021e-008
8.212033e-008
6.631368e-008
3.676145e-008
-6.919294e-009
-5.969256e-008
-1.098040e-007
-1.405297e-007
-1.356355e-007
-8.727738e-008
-2.961972e-009
9.279837e-008
1.651180e-007
1.827840e-007
1.340686e-007
3.582839e-008
-7.091418e-008
-1.391794e-007
-1.398792e-007
-7.803201e-008
9.374061e-009
7.435074e-008
8.591226e-008
4.746082e-008
-8.156463e-009
-4.265529e-008
-3.841129e-008
-7.936715e-009
1.945490e-008
2.237847e-008
3.428072e-009
-1.588129e-008
-7.156381e-008
-4.726743e-008
-9.268601e-009
2.477280e-008
3.778459e-008
2.315046e-008
-9.148388e-009
-3.641041e-008
-3.728233e-008
-7.481200e-009
3.478886e-008
5.944196e-008
4.495243e-008
-5.618247e-009
-6.469476e-008
-9.666653e-008
-7.967445e-008
-1.854774e-008
5.850582e-008
1.160050e-007
1.294641e-007
9.564935e-008
3.095209e-008
-3.888163e-008
-9.080643e-008
-1.123959e-007
-1.033824e-007
-7.222946e-008
-3.089916e-008
9.427636e-009
4.051288e-008
5.743823e-008
5.815933e-008
4.298276e-008
1.419107e-008
-2.427647e-008
-6.719204e-008
-1.084847e-007
-1.418126e-007
-1.613702e-007
-1.629494e-007
-1.450118e-007
-1.093026e-007
-6.060327e-008
-5.605633e-009
4.866827e-008
9.627392e-008
1.331160e-007
1.569952e-007
1.671767e-007
1.638508e-007
1.477749e-007
1.201985e-007
8.300636e-008
3.891134e-008
-8.484347e-009
-5.489217e-008
-9.583182e-008
-1.273224e-007
-1.465813e-007
-1.525219e-007
-1.458942e-007
-1.290090e-007
-1.050788e-007
-7.730404e-008
-4.794782e-008
-1.776813e-008
1.379200e-008
4.744397e-008
8.216499e-008
1.133994e-007
1.325601e-007
1.289084e-007
9.403825e-008
2.774181e-008
-5.746374e-008
-1.364864e-007
-1.786532e-007
-1.605455e-007
-7.962420e-008
3.897243e-008
1.486908e-007
2.010697e-007
1.703939e-007
6.990706e-008
-5.185635e-008
-1.355394e-007
-1.436397e-007
-8.151859e-008
7.495814e-009
7.054404e-008
7.830896e-008
4.011423e-008
-8.428865e-009
-3.412235e-008
-2.842935e-008
-7.333725e-009
7.624993e-009
8.428700e-009
3.291742e-009
-8.760397e-008
-4.992130e-008
2.644527e-009
3.877045e-008
3.860560e-008
6.887587e-009
-2.999749e-008
-4.216198e-008
-1.786986e-008
2.674253e-008
5.790820e-008
4.820506e-008
-2.596336e-009
-6.511972e-008
-9.866019e-008
-7.763865e-008
-8.276726e-009
7.504008e-008
1.301727e-007
1.305767e-007
7.767159e-008
-3.092679e-009
-7.757129e-008
-1.195091e-007
-1.198998e-007
-8.649924e-008
-3.648568e-008
1.233154e-008
4.744221e-008
6.328463e-008
5.978689e-008
3.997886e-008
8.280457e-009
-3.016107e-008
-6.958795e-008
-1.038091e-007
-1.266715e-007
-1.327441e-007
-1.181019e-007
-8.115749e-008
-2.338779e-008
5.040762e-008
1.327081e-007
2.147826e-007
2.886342e-007
3.485997e-007
3.919951e-007
4.187085e-007
4.301381e-007
4.280575e-007
4.138434e-007
3.882161e-007
3.514113e-007
3.036141e-007
2.454901e-007
1.786675e-007
1.060229e-007
3.164624e-008
-3.957430e-008
-1.026854e-007
-1.535496e-007
-1.896503e-007
-2.105954e-007
-2.181118e-007
-2.153792e-007
-2.057044e-007
-1.908575e-007
-1.697675e-007
-1.384772e-007
-9.200534e-008
-2.799131e-008
4.910939e-008
1.254659e-007
1.793333e-007
1.878032e-007
1.376059e-007
3.560990e-008
-8.727415e-008
-1.838279e-007
-2.097198e-007
-1.466237e-007
-1.660641e-008
1.231654e-007
2.066087e-007
1.937034e-007
9.399028e-008
-3.745863e-008
-1.314178e-007
-1.446687e-007
-8.326814e-008
5.955793e-009
6.859653e-008
7.658022e-008
4.005461e-008
-7.463155e-009
-3.561772e-008
-3.467092e-008
-1.439256e-008
8.778223e-009
2.283311e-008
-7.436002e-008
-3.535953e-008
1.412384e-008
3.893584e-008
2.425254e-008
-1.323774e-008
-3.886030e-008
-2.797114e-008
1.339623e-008
5.189475e-008
5.239112e-008
6.325787e-009
-5.907172e-008
-9.829102e-008
-7.920209e-008
-5.997756e-009
8.251050e-008
1.371516e-007
1.279835e-007
6.015545e-008
-3.197862e-008
-1.060088e-007
-1.334893e-007
-1.108062e-007
-5.570829e-008
5.248428e-009
4.979669e-008
6.725429e-008
5.853064e-008
3.144849e-008
-4.604824e-009
-4.186587e-008
-7.470232e-008
-9.867130e-008
-1.096896e-007
-1.040774e-007
-7.928068e-008
-3.470930e-008
2.767100e-008
1.030930e-007
1.842109e-007
2.620368e-007
3.276747e-007
3.744405e-007
3.995211e-007
4.044055e-007
3.939198e-007
3.744021e-007
3.518538e-007
3.306971e-007
3.132910e-007
2.999863e-007
2.894263e-007
2.789458e-007
2.650931e-007
2.443450e-007
2.139738e-007
1.728669e-007
1.220275e-007
6.454969e-008
5.015687e-009
-5.158703e-008
-1.012113e-007
-1.420066e-007
-1.749779e-007
-2.034922e-007
-2.313455e-007
-2.597562e-007
-2.844773e-007
-2.947621e-007
-2.757373e-007
-2.145955e-007
-1.090605e-007
2.554693e-008
1.554248e-007
2.370920e-007
2.351167e-007
1.420492e-007
-1.042283e-008
-1.587082e-007
-2.340686e-007
-1.978187e-007
-6.549661e-008
9.679921e-008
2.058756e-007
2.075337e-007
1.076084e-007
-3.245092e-008
-1.336825e-007
-1.471151e-007
-7.996803e-008
1.515789e-008
7.817221e-008
7.917908e-008
3.166574e-008
-2.368983e-008
-4.945115e-008
-3.440383e-008
3.780618e-009
3.415042e-008
-3.736127e-008
-9.624681e-009
2.044165e-008
2.536424e-008
1.224528e-009
-2.784839e-008
-3.111768e-008
-1.211037e-010
4.088459e-008
5.345610e-008
1.796651e-008
-4.658359e-008
-9.346806e-008
-8.244921e-008
-1.100895e-008
8.134179e-008
1.387160e-007
1.253713e-007
4.751510e-008
-5.279133e-008
-1.247652e-007
-1.376623e-007
-9.396289e-008
-2.239342e-008
4.114984e-008
7.184798e-008
6.423961e-008
2.918524e-008
-1.559266e-008
-5.473119e-008
-7.981391e-008
-8.880858e-008
-8.278336e-008
-6.296937e-008
-2.986575e-008
1.586019e-008
7.199511e-008
1.340148e-007
1.951903e-007
2.473189e-007
2.819157e-007
2.918820e-007
2.734431e-007
2.276590e-007
1.606588e-007
8.227357e-008
3.615309e-009
-6.531234e-008
-1.170800e-007
-1.471707e-007
-1.536193e-007
-1.365714e-007
-9.812941e-008
-4.244661e-008
2.425413e-008
9.408786e-008
1.584849e-007
2.095837e-007
2.416683e-007
2.522442e-007
2.424531e-007
2.166502e-007
1.810618e-007
1.416212e-007
1.014698e-007
5.911655e-008
8.505875e-009
-5.815058e-008
-1.450434e-007
-2.467167e-007
-3.443361e-007
-4.075532e-007
-4.037909e-007
-3.134323e-007
-1.450591e-007
5.809392e-008
2.279707e-007
2.982675e-007
2.377392e-007
7.245258e-008
-1.192188e-007
-2.419620e-007
-2.335733e-007
-1.013800e-007
7.921710e-008
2.070007e-007
2.144014e-007
1.071064e-007
-4.230770e-008
-1.428737e-007
-1.433053e-007
-6.062349e-008
3.847147e-008
8.767673e-008
6.554451e-008
3.664574e-009
-4.378471e-008
-4.323846e-008
-4.530086e-009
3.211742e-008
1.050935e-008
1.813753e-008
1.925107e-008
3.205702e-009
-2.126235e-008
-3.063196e-008
-9.696733e-009
2.905769e-008
5.104507e-008
2.872399e-008
-3.052242e-008
-8.416440e-008
-8.543788e-008
-2.150436e-008
7.251687e-008
1.360032e-007
1.250324e-007
4.267540e-008
-6.392628e-008
-1.354686e-007
-1.373311e-007
-7.699952e-008
5.920578e-009
6.637440e-008
7.846395e-008
4.465420e-008