# vtk DataFile Version 3.0
vtk output
ASCII
DATASET STRUCTURED_POINTS
DIMENSIONS 100 100 1
SPACING 1 1 1
ORIGIN 0 0 0
POINT_DATA 10000
SCALARS SFBox_profile double
LOOKUP_TABLE default 
9.439923e-003
9.439921e-003
9.439919e-003
9.439918e-003
9.439918e-003
9.439920e-003
9.439921e-003
9.439921e-003
9.439921e-003
9.439920e-003
9.439920e-003
9.439920e-003
9.439920e-003
9.439920e-003
9.439919e-003
9.439920e-003
9.439920e-003
9.439921e-003
9.439921e-003
9.439921e-003
9.439920e-003
9.439920e-003
9.439920e-003
9.439920e-003
9.439920e-003
9.439919e-003
9.439919e-003
9.439920e-003
9.439920e-003
9.439921e-003
9.439921e-003
9.439921e-003
9.439922e-003
9.439922e-003
9.439923e-003
9.439923e-003
9.439924e-003
9.439924e-003
9.439925e-003
9.439925e-003
9.439925e-003
9.439926e-003
9.439926e-003
9.439926e-003
9.439927e-003
9.439927e-003
9.439927e-003
9.439927e-003
9.439927e-003
9.439928e-003
9.439928e-003
9.439928e-003
9.439927e-003
9.439927e-003
9.439927e-003
9.439927e-003
9.439927e-003
9.439927e-003
9.439926e-003
9.439926e-003
9.439926e-003
9.439925e-003
9.439925e-003
9.439925e-003
9.439924e-003
9.439924e-003
9.439923e-003
9.439923e-003
9.439922e-003
9.439922e-003
9.439922e-003
9.439921e-003
9.439920e-003
9.439920e-003
9.439920e-003
9.439920e-003
9.439920e-003
9.439920e-003
9.439919e-003
9.439920e-003
9.439920e-003
9.439921e-003
9.439921e-003
9.439920e-003
9.439920e-003
9.439920e-003
9.439920e-003
9.439920e-003
9.439920e-003
9.439919e-003
9.439920e-003
9.439920e-003
9.439921e-003
9.439921e-003
9.439920e-003
9.439919e-003
9.439919e-003
9.439919e-003
9.439920e-003
9.439921e-003
9.439923e-003
9.439921e-003
9.439919e-003
9.439918e-003
9.439918e-003
9.439920e-003
9.439921e-003
9.439921e-003
9.439921e-003
9.439920e-003
9.439920e-003
9.439920e-003
9.439920e-003
9.439920e-003
9.439919e-003
9.439920e-003
9.439920e-003
9.439921e-003
9.439921e-003
9.439921e-003
9.439920e-003
9.439920e-003
9.439920e-003
9.439920e-003
9.439920e-003
9.439919e-003
9.439919e-003
9.439920e-003
9.439920e-003
9.439921e-003
9.439921e-003
9.439921e-003
9.439922e-003
9.439922e-003
9.439923e-003
9.439923e-003
9.439924e-003
9.439924e-003
9.439925e-003
9.439925e-003
9.439925e-003
9.439926e-003
9.439926e-003
9.439926e-003
9.439927e-003
9.439927e-003
9.439927e-003
9.439927e-003
9.439927e-003
9.439928e-003
9.439928e-003
9.439928e-003
9.439927e-003
9.439927e-003
9.439927e-003
9.439927e-003
9.439927e-003
9.439927e-003
9.439926e-003
9.439926e-003
9.439926e-003
9.439925e-003
9.439925e-003
9.439925e-003
9.439924e-003
9.439924e-003
9.439923e-003
9.439923e-003
9.439922e-003
9.439922e-003
9.439922e-003
9.439921e-003
9.439920e-003
9.439920e-003
9.439920e-003
9.439920e-003
9.439920e-003
9.439920e-003
9.439919e-003
9.439920e-003
9.439920e-003
9.439921e-003
9.439921e-003
9.439920e-003
9.439920e-003
9.439920e-003
9.439920e-003
9.439920e-003
9.439920e-003
9.439919e-003
9.439920e-003
9.439920e-003
9.439921e-003
9.439921e-003
9.439920e-003
9.439919e-003
9.439919e-003
9.439919e-003
9.439920e-003
9.439921e-003
9.439920e-003
9.439920e-003
9.439920e-003
9.439920e-003
9.439920e-003
9.439920e-003
9.439920e-003
9.439920e-003
9.439920e-003
9.439920e-003
9.439920e-003
9.439920e-003
9.439920e-003
9.439920e-003
9.439920e-003
9.439920e-003
9.439920e-003
9.439920e-003
9.439920e-003
9.439920e-003
9.439920e-003
9.439920e-003
9.439920e-003
9.439921e-003
9.439921e-003
9.439921e-003
9.439921e-003
9.439921e-003
9.439922e-003
9.439922e-003
9.439922e-003
9.439922e-003
9.439922e-003
9.439923e-003
9.439923e-003
9.439924e-003
9.439924e-003
9.439925e-003
9.439925e-003
9.439926e-003
9.439926e-003
9.439927e-003
9.439927e-003
9.439927e-003
9.439928e-003
9.439928e-003
9.439929e-003
9.439929e-003
9.439929e-003
9.439929e-003
9.439929e-003
9.439929e-003
9.439929e-003
9.439929e-003
9.439929e-003
9.439929e-003
9.439929e-003
9.439928e-003
9.439928e-003
9.439928e-003
9.439927e-003
9.439926e-003
9.439926e-003
9.439925e-003
9.439925e-003
9.439924e-003
9.439924e-003
9.439923e-003
9.439923e-003
9.439922e-003
9.439922e-003
9.439922e-003
9.439921e-003
9.439921e-003
9.439921e-003
9.439921e-003
9.439921e-003
9.439920e-003
9.439920e-003
9.439920e-003
9.439920e-003
9.439920e-003
9.439920e-003
9.439920e-003
9.439920e-003
9.439920e-003
9.439920e-003
9.439920e-003
9.439920e-003
9.439920e-003
9.439920e-003
9.439920e-003
9.439920e-003
9.439920e-003
9.439920e-003
9.439920e-003
9.439920e-003
9.439920e-003
9.439920e-003
9.439920e-003
9.439917e-003
9.439919e-003
9.439921e-003
9.439922e-003
9.439921e-003
9.439920e-003
9.439919e-003
9.439919e-003
9.439919e-003
9.439920e-003
9.439920e-003
9.439920e-003
9.439921e-003
9.439921e-003
9.439921e-003
9.439920e-003
9.439920e-003
9.439919e-003
9.439919e-003
9.439919e-003
9.439920e-003
9.439920e-003
9.439921e-003
9.439921e-003
9.439922e-003
9.439922e-003
9.439923e-003
9.439923e-003
9.439923e-003
9.439923e-003
9.439924e-003
9.439924e-003
9.439925e-003
9.439925e-003
9.439926e-003
9.439927e-003
9.439927e-003
9.439928e-003
9.439929e-003
9.439930e-003
9.439930e-003
9.439931e-003
9.439932e-003
9.439932e-003
9.439933e-003
9.439934e-003
9.439934e-003
9.439934e-003
9.439935e-003
9.439935e-003
9.439935e-003
9.439935e-003
9.439935e-003
9.439935e-003
9.439935e-003
9.439934e-003
9.439934e-003
9.439933e-003
9.439933e-003
9.439932e-003
9.439932e-003
9.439931e-003
9.439930e-003
9.439929e-003
9.439928e-003
9.439927e-003
9.439926e-003
9.439925e-003
9.439925e-003
9.439924e-003
9.439923e-003
9.439923e-003
9.439923e-003
9.439922e-003
9.439922e-003
9.439922e-003
9.439922e-003
9.439921e-003
9.439921e-003
9.439920e-003
9.439920e-003
9.439920e-003
9.439919e-003
9.439919e-003
9.439920e-003
9.439920e-003
9.439920e-003
9.439920e-003
9.439920e-003
9.439920e-003
9.439920e-003
9.439920e-003
9.439919e-003
9.439919e-003
9.439920e-003
9.439920e-003
9.439921e-003
9.439920e-003
9.439920e-003
9.439919e-003
9.439917e-003
9.439919e-003
9.439921e-003
9.439922e-003
9.439922e-003
9.439920e-003
9.439919e-003
9.439919e-003
9.439919e-003
9.439920e-003
9.439920e-003
9.439920e-003
9.439920e-003
9.439920e-003
9.439920e-003
9.439920e-003
9.439920e-003
9.439920e-003
9.439920e-003
9.439920e-003
9.439921e-003
9.439921e-003
9.439921e-003
9.439921e-003
9.439922e-003
9.439922e-003
9.439923e-003
9.439924e-003
9.439925e-003
9.439926e-003
9.439927e-003
9.439928e-003
9.439929e-003
9.439930e-003
9.439932e-003
9.439933e-003
9.439934e-003
9.439936e-003
9.439937e-003
9.439938e-003
9.439939e-003
9.439940e-003
9.439941e-003
9.439941e-003
9.439942e-003
9.439942e-003
9.439943e-003
9.439943e-003
9.439943e-003
9.439944e-003
9.439944e-003
9.439944e-003
9.439944e-003
9.439943e-003
9.439943e-003
9.439943e-003
9.439942e-003
9.439942e-003
9.439941e-003
9.439940e-003
9.439939e-003
9.439938e-003
9.439937e-003
9.439936e-003
9.439935e-003
9.439934e-003
9.439932e-003
9.439931e-003
9.439930e-003
9.439928e-003
9.439927e-003
9.439926e-003
9.439925e-003
9.439924e-003
9.439923e-003
9.439922e-003
9.439922e-003
9.439921e-003
9.439921e-003
9.439921e-003
9.439920e-003
9.439920e-003
9.439920e-003
9.439920e-003
9.439920e-003
9.439920e-003
9.439920e-003
9.439920e-003
9.439920e-003
9.439920e-003
9.439920e-003
9.439920e-003
9.439919e-003
9.439919e-003
9.439920e-003
9.439921e-003
9.439921e-003
9.439921e-003
9.439920e-003
9.439919e-003
9.439919e-003
9.439920e-003
9.439920e-003
9.439921e-003
9.439920e-003
9.439920e-003
9.439919e-003
9.439920e-003
9.439921e-003
9.439921e-003
9.439921e-003
9.439920e-003
9.439919e-003
9.439919e-003
9.439920e-003
9.439920e-003
9.439921e-003
9.439921e-003
9.439921e-003
9.439921e-003
9.439922e-003
9.439922e-003
9.439922e-003
9.439922e-003
9.439923e-003
9.439924e-003
9.439925e-003
9.439927e-003
9.439928e-003
9.439930e-003
9.439932e-003
9.439934e-003
9.439936e-003
9.439938e-003
9.439940e-003
9.439941e-003
9.439943e-003
9.439944e-003
9.439945e-003
9.439946e-003
9.439947e-003
9.439948e-003
9.439948e-003
9.439948e-003
9.439948e-003
9.439948e-003
9.439948e-003
9.439948e-003
9.439948e-003
9.439948e-003
9.439947e-003
9.439947e-003
9.439947e-003
9.439947e-003
9.439946e-003
9.439946e-003
9.439946e-003
9.439946e-003
9.439946e-003
9.439945e-003
9.439945e-003
9.439945e-003
9.439944e-003
9.439943e-003
9.439942e-003
9.439941e-003
9.439940e-003
9.439938e-003
9.439936e-003
9.439934e-003
9.439932e-003
9.439930e-003
9.439928e-003
9.439927e-003
9.439925e-003
9.439923e-003
9.439922e-003
9.439922e-003
9.439922e-003
9.439921e-003
9.439921e-003
9.439921e-003
9.439921e-003
9.439921e-003
9.439921e-003
9.439920e-003
9.439920e-003
9.439919e-003
9.439920e-003
9.439920e-003
9.439920e-003
9.439920e-003
9.439920e-003
9.439920e-003
9.439920e-003
9.439920e-003
9.439920e-003
9.439920e-003
9.439920e-003
9.439920e-003
9.439922e-003
9.439921e-003
9.439920e-003
9.439919e-003
9.439919e-003
9.439919e-003
9.439920e-003
9.439921e-003
9.439921e-003
9.439921e-003
9.439920e-003
9.439920e-003
9.439919e-003
9.439919e-003
9.439920e-003
9.439920e-003
9.439921e-003
9.439921e-003
9.439922e-003
9.439922e-003
9.439923e-003
9.439923e-003
9.439924e-003
9.439925e-003
9.439926e-003
9.439928e-003
9.439931e-003
9.439933e-003
9.439935e-003
9.439937e-003
9.439940e-003
9.439942e-003
9.439944e-003
9.439945e-003
9.439946e-003
9.439947e-003
9.439947e-003
9.439947e-003
9.439947e-003
9.439945e-003
9.439944e-003
9.439942e-003
9.439941e-003
9.439938e-003
9.439936e-003
9.439934e-003
9.439932e-003
9.439930e-003
9.439928e-003
9.439926e-003
9.439925e-003
9.439924e-003
9.439923e-003
9.439923e-003
9.439924e-003
9.439925e-003
9.439926e-003
9.439928e-003
9.439930e-003
9.439932e-003
9.439934e-003
9.439937e-003
9.439939e-003
9.439941e-003
9.439942e-003
9.439943e-003
9.439943e-003
9.439943e-003
9.439942e-003
9.439940e-003
9.439938e-003
9.439936e-003
9.439934e-003
9.439932e-003
9.439930e-003
9.439927e-003
9.439926e-003
9.439924e-003
9.439923e-003
9.439922e-003
9.439922e-003
9.439921e-003
9.439921e-003
9.439921e-003
9.439921e-003
9.439920e-003
9.439920e-003
9.439919e-003
9.439919e-003
9.439920e-003
9.439920e-003
9.439920e-003
9.439920e-003
9.439920e-003
9.439920e-003
9.439920e-003
9.439919e-003
9.439920e-003
9.439920e-003
9.439921e-003
9.439923e-003
9.439921e-003
9.439919e-003
9.439918e-003
9.439919e-003
9.439920e-003
9.439921e-003
9.439921e-003
9.439920e-003
9.439920e-003
9.439920e-003
9.439920e-003
9.439920e-003
9.439920e-003
9.439920e-003
9.439921e-003
9.439921e-003
9.439921e-003
9.439922e-003
9.439923e-003
9.439924e-003
9.439926e-003
9.439928e-003
9.439930e-003
9.439933e-003
9.439936e-003
9.439939e-003
9.439941e-003
9.439944e-003
9.439945e-003
9.439947e-003
9.439947e-003
9.439947e-003
9.439945e-003
9.439942e-003
9.439938e-003
9.439933e-003
9.439926e-003
9.439919e-003
9.439910e-003
9.439901e-003
9.439892e-003
9.439882e-003
9.439872e-003
9.439862e-003
9.439853e-003
9.439844e-003
9.439836e-003
9.439829e-003
9.439823e-003
9.439819e-003
9.439816e-003
9.439815e-003
9.439816e-003
9.439819e-003
9.439823e-003
9.439830e-003
9.439838e-003
9.439847e-003
9.439858e-003
9.439869e-003
9.439881e-003
9.439893e-003
9.439903e-003
9.439913e-003
9.439922e-003
9.439929e-003
9.439935e-003
9.439939e-003
9.439941e-003
9.439942e-003
9.439942e-003
9.439941e-003
9.439939e-003
9.439936e-003
9.439933e-003
9.439931e-003
9.439929e-003
9.439926e-003
9.439925e-003
9.439923e-003
9.439922e-003
9.439921e-003
9.439921e-003
9.439921e-003
9.439920e-003
9.439920e-003
9.439920e-003
9.439920e-003
9.439920e-003
9.439920e-003
9.439920e-003
9.439920e-003
9.439921e-003
9.439920e-003
9.439920e-003
9.439919e-003
9.439919e-003
9.439920e-003
9.439921e-003
9.439921e-003
9.439920e-003
9.439919e-003
9.439919e-003
9.439920e-003
9.439921e-003
9.439921e-003
9.439920e-003
9.439919e-003
9.439919e-003
9.439919e-003
9.439921e-003
9.439921e-003
9.439922e-003
9.439921e-003
9.439921e-003
9.439922e-003
9.439922e-003
9.439923e-003
9.439925e-003
9.439927e-003
9.439930e-003
9.439934e-003
9.439937e-003
9.439941e-003
9.439944e-003
9.439946e-003
9.439948e-003
9.439948e-003
9.439946e-003
9.439942e-003
9.439936e-003
9.439926e-003
9.439913e-003
9.439897e-003
9.439877e-003
9.439855e-003
9.439830e-003
9.439802e-003
9.439772e-003
9.439741e-003
9.439709e-003
9.439677e-003
9.439645e-003
9.439614e-003
9.439585e-003
9.439558e-003
9.439535e-003
9.439514e-003
9.439498e-003
9.439485e-003
9.439478e-003
9.439477e-003
9.439480e-003
9.439489e-003
9.439504e-003
9.439524e-003
9.439550e-003
9.439580e-003
9.439613e-003
9.439649e-003
9.439687e-003
9.439726e-003
9.439764e-003
9.439799e-003
9.439832e-003
9.439861e-003
9.439885e-003
9.439905e-003
9.439920e-003
9.439931e-003
9.439938e-003
9.439941e-003
9.439943e-003
9.439942e-003
9.439940e-003
9.439937e-003
9.439934e-003
9.439931e-003
9.439928e-003
9.439926e-003
9.439924e-003
9.439922e-003
9.439921e-003
9.439921e-003
9.439921e-003
9.439921e-003
9.439921e-003
9.439921e-003
9.439920e-003
9.439919e-003
9.439919e-003
9.439920e-003
9.439920e-003
9.439920e-003
9.439920e-003
9.439920e-003
9.439920e-003
9.439920e-003
9.439920e-003
9.439919e-003
9.439919e-003
9.439920e-003
9.439920e-003
9.439921e-003
9.439921e-003
9.439921e-003
9.439920e-003
9.439919e-003
9.439919e-003
9.439920e-003
9.439921e-003
9.439922e-003
9.439922e-003
9.439922e-003
9.439922e-003
9.439923e-003
9.439925e-003
9.439928e-003
9.439930e-003
9.439933e-003
9.439937e-003
9.439941e-003
9.439945e-003
9.439947e-003
9.439948e-003
9.439947e-003
9.439942e-003
9.439933e-003
9.439918e-003
9.439896e-003
9.439867e-003
9.439830e-003
9.439784e-003
9.439730e-003
9.439668e-003
9.439598e-003
9.439522e-003
9.439441e-003
9.439355e-003
9.439267e-003
9.439178e-003
9.439090e-003
9.439004e-003
9.438922e-003
9.438844e-003
9.438774e-003
9.438712e-003
9.438659e-003
9.438616e-003
9.438586e-003
9.438568e-003
9.438564e-003
9.438575e-003
9.438600e-003
9.438640e-003
9.438695e-003
9.438763e-003
9.438843e-003
9.438934e-003
9.439033e-003
9.439138e-003
9.439245e-003
9.439351e-003
9.439453e-003
9.439549e-003
9.439636e-003
9.439712e-003
9.439777e-003
9.439829e-003
9.439870e-003
9.439900e-003
9.439920e-003
9.439933e-003
9.439940e-003
9.439942e-003
9.439942e-003
9.439940e-003
9.439936e-003
9.439933e-003
9.439930e-003
9.439928e-003
9.439925e-003
9.439923e-003
9.439922e-003
9.439921e-003
9.439921e-003
9.439921e-003
9.439921e-003
9.439920e-003
9.439920e-003
9.439919e-003
9.439920e-003
9.439920e-003
9.439920e-003
9.439920e-003
9.439920e-003
9.439920e-003
9.439920e-003
9.439920e-003
9.439918e-003
9.439919e-003
9.439921e-003
9.439921e-003
9.439921e-003
9.439920e-003
9.439920e-003
9.439920e-003
9.439920e-003
9.439920e-003
9.439920e-003
9.439921e-003
9.439921e-003
9.439922e-003
9.439922e-003
9.439924e-003
9.439927e-003
9.439930e-003
9.439934e-003
9.439938e-003
9.439942e-003
9.439946e-003
9.439949e-003
9.439949e-003
9.439946e-003
9.439938e-003
9.439922e-003
9.439896e-003
9.439857e-003
9.439803e-003
9.439731e-003
9.439640e-003
9.439529e-003
9.439398e-003
9.439247e-003
9.439077e-003
9.438891e-003
9.438691e-003
9.438480e-003
9.438262e-003
9.438040e-003
9.437818e-003
9.437599e-003
9.437388e-003
9.437187e-003
9.437000e-003
9.436830e-003
9.436680e-003
9.436554e-003
9.436454e-003
9.436382e-003
9.436341e-003
9.436334e-003
9.436361e-003
9.436423e-003
9.436521e-003
9.436655e-003
9.436821e-003
9.437018e-003
9.437241e-003
9.437486e-003
9.437745e-003
9.438013e-003
9.438281e-003
9.438543e-003
9.438792e-003
9.439021e-003
9.439225e-003
9.439402e-003
9.439551e-003
9.439671e-003
9.439763e-003
9.439832e-003
9.439879e-003
9.439911e-003
9.439930e-003
9.439939e-003
9.439942e-003
9.439941e-003
9.439939e-003
9.439936e-003
9.439933e-003
9.439929e-003
9.439926e-003
9.439924e-003
9.439922e-003
9.439922e-003
9.439921e-003
9.439921e-003
9.439920e-003
9.439920e-003
9.439920e-003
9.439920e-003
9.439920e-003
9.439920e-003
9.439920e-003
9.439921e-003
9.439920e-003
9.439920e-003
9.439919e-003
9.439918e-003
9.439920e-003
9.439921e-003
9.439921e-003
9.439920e-003
9.439919e-003
9.439919e-003
9.439920e-003
9.439921e-003
9.439922e-003
9.439921e-003
9.439921e-003
9.439921e-003
9.439923e-003
9.439925e-003
9.439928e-003
9.439932e-003
9.439936e-003
9.439941e-003
9.439946e-003
9.439949e-003
9.439951e-003
9.439948e-003
9.439937e-003
9.439916e-003
9.439878e-003
9.439820e-003
9.439735e-003
9.439617e-003
9.439462e-003
9.439264e-003
9.439021e-003
9.438732e-003
9.438397e-003
9.438018e-003
9.437599e-003
9.437146e-003
9.436665e-003
9.436164e-003
9.435650e-003
9.435132e-003
9.434618e-003
9.434115e-003
9.433632e-003
9.433176e-003
9.432754e-003
9.432373e-003
9.432038e-003
9.431757e-003
9.431535e-003
9.431378e-003
9.431290e-003
9.431276e-003
9.431339e-003
9.431481e-003
9.431703e-003
9.432005e-003
9.432382e-003
9.432829e-003
9.433338e-003
9.433898e-003
9.434495e-003
9.435116e-003
9.435744e-003
9.436362e-003
9.436954e-003
9.437506e-003
9.438007e-003
9.438447e-003
9.438823e-003
9.439134e-003
9.439381e-003
9.439570e-003
9.439709e-003
9.439806e-003
9.439870e-003
9.439910e-003
9.439931e-003
9.439940e-003
9.439943e-003
9.439942e-003
9.439938e-003
9.439934e-003
9.439931e-003
9.439927e-003
9.439925e-003
9.439923e-003
9.439921e-003
9.439921e-003
9.439921e-003
9.439921e-003
9.439921e-003
9.439920e-003
9.439920e-003
9.439919e-003
9.439920e-003
9.439920e-003
9.439921e-003
9.439920e-003
9.439919e-003
9.439920e-003
9.439921e-003
9.439921e-003
9.439920e-003
9.439919e-003
9.439918e-003
9.439919e-003
9.439921e-003
9.439922e-003
9.439922e-003
9.439922e-003
9.439922e-003
9.439923e-003
9.439926e-003
9.439930e-003
9.439934e-003
9.439938e-003
9.439943e-003
9.439948e-003
9.439951e-003
9.439950e-003
9.439940e-003
9.439917e-003
9.439873e-003
9.439799e-003
9.439685e-003
9.439518e-003
9.439286e-003
9.438979e-003
9.438584e-003
9.438093e-003
9.437504e-003
9.436813e-003
9.436025e-003
9.435146e-003
9.434187e-003
9.433161e-003
9.432083e-003
9.430971e-003
9.429842e-003
9.428712e-003
9.427600e-003
9.426521e-003
9.425490e-003
9.424524e-003
9.423634e-003
9.422833e-003
9.422136e-003
9.421552e-003
9.421093e-003
9.420770e-003
9.420592e-003
9.420567e-003
9.420703e-003
9.421004e-003
9.421473e-003
9.422108e-003
9.422904e-003
9.423851e-003
9.424934e-003
9.426131e-003
9.427417e-003
9.428762e-003
9.430133e-003
9.431496e-003
9.432814e-003
9.434057e-003
9.435197e-003
9.436213e-003
9.437093e-003
9.437831e-003
9.438430e-003
9.438899e-003
9.439254e-003
9.439511e-003
9.439688e-003
9.439805e-003
9.439876e-003
9.439916e-003
9.439935e-003
9.439942e-003
9.439942e-003
9.439939e-003
9.439935e-003
9.439932e-003
9.439928e-003
9.439925e-003
9.439923e-003
9.439921e-003
9.439921e-003
9.439921e-003
9.439921e-003
9.439921e-003
9.439920e-003
9.439919e-003
9.439920e-003
9.439920e-003
9.439920e-003
9.439920e-003
9.439920e-003
9.439921e-003
9.439921e-003
9.439920e-003
9.439920e-003
9.439920e-003
9.439920e-003
9.439920e-003
9.439921e-003
9.439921e-003
9.439922e-003
9.439922e-003
9.439924e-003
9.439927e-003
9.439931e-003
9.439936e-003
9.439942e-003
9.439947e-003
9.439951e-003
9.439952e-003
9.439946e-003
9.439926e-003
9.439883e-003
9.439804e-003
9.439673e-003
9.439469e-003
9.439169e-003
9.438749e-003
9.438183e-003
9.437448e-003
9.436524e-003
9.435399e-003
9.434065e-003
9.432526e-003
9.430792e-003
9.428884e-003
9.426827e-003
9.424653e-003
9.422395e-003
9.420090e-003
9.417774e-003
9.415482e-003
9.413245e-003
9.411095e-003
9.409059e-003
9.407164e-003
9.405433e-003
9.403887e-003
9.402548e-003
9.401434e-003
9.400565e-003
9.399958e-003
9.399630e-003
9.399596e-003
9.399868e-003
9.400456e-003
9.401367e-003
9.402599e-003
9.404147e-003
9.405995e-003
9.408120e-003
9.410487e-003
9.413051e-003
9.415758e-003
9.418545e-003
9.421344e-003
9.424086e-003
9.426703e-003
9.429135e-003
9.431332e-003
9.433260e-003
9.434901e-003
9.436254e-003
9.437333e-003
9.438164e-003
9.438780e-003
9.439218e-003
9.439516e-003
9.439709e-003
9.439827e-003
9.439894e-003
9.439927e-003
9.439940e-003
9.439943e-003
9.439941e-003
9.439937e-003
9.439933e-003
9.439929e-003
9.439926e-003
9.439923e-003
9.439922e-003
9.439921e-003
9.439921e-003
9.439921e-003
9.439920e-003
9.439920e-003
9.439920e-003
9.439920e-003
9.439920e-003
9.439920e-003
9.439920e-003
9.439921e-003
9.439920e-003
9.439919e-003
9.439920e-003
9.439921e-003
9.439921e-003
9.439921e-003
9.439921e-003
9.439921e-003
9.439922e-003
9.439924e-003
9.439927e-003
9.439932e-003
9.439938e-003
9.439944e-003
9.439950e-003
9.439954e-003
9.439952e-003
9.439940e-003
9.439906e-003
9.439836e-003
9.439707e-003
9.439492e-003
9.439156e-003
9.438656e-003
9.437944e-003
9.436970e-003
9.435686e-003
9.434048e-003
9.432025e-003
9.429598e-003
9.426767e-003
9.423549e-003
9.419982e-003
9.416115e-003
9.412010e-003
9.407739e-003
9.403372e-003
9.398983e-003
9.394638e-003
9.390401e-003
9.386328e-003
9.382468e-003
9.378863e-003
9.375551e-003
9.372564e-003
9.369929e-003
9.367673e-003
9.365821e-003
9.364394e-003
9.363416e-003
9.362909e-003
9.362894e-003
9.363389e-003
9.364414e-003
9.365979e-003
9.368094e-003
9.370756e-003
9.373954e-003
9.377663e-003
9.381842e-003
9.386429e-003
9.391346e-003
9.396492e-003
9.401750e-003
9.406993e-003
9.412088e-003
9.416907e-003
9.421340e-003
9.425298e-003
9.428723e-003
9.431595e-003
9.433924e-003
9.435747e-003
9.437123e-003
9.438124e-003
9.438823e-003
9.439290e-003
9.439587e-003
9.439766e-003
9.439866e-003
9.439916e-003
9.439937e-003
9.439943e-003
9.439942e-003
9.439938e-003
9.439933e-003
9.439929e-003
9.439926e-003
9.439923e-003
9.439922e-003
9.439921e-003
9.439920e-003
9.439921e-003
9.439921e-003
9.439920e-003
9.439920e-003
9.439920e-003
9.439920e-003
9.439920e-003
9.439921e-003
9.439919e-003
9.439918e-003
9.439919e-003
9.439921e-003
9.439922e-003
9.439922e-003
9.439921e-003
9.439922e-003
9.439924e-003
9.439928e-003
9.439933e-003
9.439938e-003
9.439945e-003
9.439951e-003
9.439955e-003
9.439952e-003
9.439932e-003
9.439881e-003
9.439776e-003
9.439584e-003
9.439259e-003
9.438742e-003
9.437960e-003
9.436827e-003
9.435251e-003
9.433137e-003
9.430397e-003
9.426965e-003
9.422801e-003
9.417897e-003
9.412289e-003
9.406048e-003
9.399280e-003
9.392115e-003
9.384696e-003
9.377171e-003
9.369684e-003
9.362363e-003
9.355323e-003
9.348656e-003
9.342435e-003
9.336718e-003
9.331540e-003
9.326929e-003
9.322897e-003
9.319452e-003
9.316598e-003
9.314336e-003
9.312667e-003
9.311596e-003
9.311128e-003
9.311275e-003
9.312052e-003
9.313482e-003
9.315590e-003
9.318406e-003
9.321963e-003
9.326292e-003
9.331414e-003
9.337335e-003
9.344034e-003
9.351453e-003
9.359491e-003
9.367998e-003
9.376779e-003
9.385603e-003
9.394220e-003
9.402384e-003
9.409876e-003
9.416526e-003
9.422228e-003
9.426948e-003
9.430716e-003
9.433615e-003
9.435761e-003
9.437290e-003
9.438335e-003
9.439019e-003
9.439446e-003
9.439697e-003
9.439835e-003
9.439904e-003
9.439934e-003
9.439943e-003
9.439942e-003
9.439938e-003
9.439934e-003
9.439929e-003
9.439926e-003
9.439923e-003
9.439921e-003
9.439921e-003
9.439921e-003
9.439921e-003
9.439921e-003
9.439920e-003
9.439919e-003
9.439920e-003
9.439920e-003
9.439921e-003
9.439920e-003
9.439919e-003
9.439919e-003
9.439921e-003
9.439922e-003
9.439922e-003
9.439922e-003
9.439924e-003
9.439928e-003
9.439934e-003
9.439940e-003
9.439946e-003
9.439952e-003
9.439956e-003
9.439950e-003
9.439923e-003
9.439853e-003
9.439709e-003
9.439441e-003
9.438982e-003
9.438238e-003
9.437089e-003
9.435391e-003
9.432983e-003
9.429694e-003
9.425366e-003
9.419871e-003
9.413136e-003
9.405161e-003
9.396030e-003
9.385913e-003
9.375053e-003
9.363747e-003
9.352317e-003
9.341082e-003
9.330335e-003
9.320323e-003
9.311237e-003
9.303211e-003
9.296316e-003
9.290572e-003
9.285954e-003
9.282396e-003
9.279804e-003
9.278063e-003
9.277047e-003
9.276624e-003
9.276666e-003
9.277052e-003
9.277671e-003
9.278430e-003
9.279260e-003
9.280118e-003
9.280999e-003
9.281943e-003
9.283044e-003
9.284448e-003
9.286358e-003
9.289015e-003
9.292683e-003
9.297616e-003
9.304016e-003
9.311997e-003
9.321548e-003
9.332509e-003
9.344573e-003
9.357306e-003
9.370192e-003
9.382695e-003
9.394328e-003
9.404704e-003
9.413583e-003
9.420872e-003
9.426615e-003
9.430959e-003
9.434114e-003
9.436313e-003
9.437784e-003
9.438724e-003
9.439297e-003
9.439628e-003
9.439806e-003
9.439894e-003
9.439931e-003
9.439942e-003
9.439942e-003
9.439938e-003
9.439934e-003
9.439929e-003
9.439926e-003
9.439923e-003
9.439921e-003
9.439921e-003
9.439921e-003
9.439921e-003
9.439920e-003
9.439920e-003
9.439920e-003
9.439920e-003
9.439922e-003
9.439921e-003
9.439920e-003
9.439920e-003
9.439921e-003
9.439922e-003
9.439923e-003
9.439924e-003
9.439928e-003
9.439933e-003
9.439940e-003
9.439948e-003
9.439954e-003
9.439957e-003
9.439949e-003
9.439915e-003
9.439827e-003
9.439643e-003
9.439295e-003
9.438686e-003
9.437677e-003
9.436085e-003
9.433683e-003
9.430204e-003
9.425366e-003
9.418900e-003
9.410592e-003
9.400343e-003
9.388210e-003
9.374443e-003
9.359491e-003
9.343980e-003
9.328657e-003
9.314316e-003
9.301719e-003
9.291523e-003
9.284227e-003
9.280144e-003
9.279400e-003
9.281942e-003
9.287565e-003
9.295935e-003
9.306615e-003
9.319093e-003
9.332803e-003
9.347152e-003
9.361534e-003
9.375350e-003
9.388021e-003
9.399001e-003
9.407781e-003
9.413908e-003
9.417001e-003
9.416777e-003
9.413084e-003
9.405938e-003
9.395561e-003
9.382416e-003
9.367218e-003
9.350926e-003
9.334698e-003
9.319807e-003
9.307523e-003
9.298971e-003
9.294990e-003
9.296007e-003
9.301963e-003
9.312306e-003
9.326064e-003
9.341988e-003
9.358739e-003
9.375079e-003
9.390024e-003
9.402931e-003
9.413506e-003
9.421757e-003
9.427903e-003
9.432282e-003
9.435269e-003
9.437220e-003
9.438437e-003
9.439161e-003
9.439569e-003
9.439784e-003
9.439887e-003
9.439929e-003
9.439942e-003
9.439942e-003
9.439938e-003
9.439933e-003
9.439929e-003
9.439925e-003
9.439923e-003
9.439922e-003
9.439921e-003
9.439920e-003
9.439920e-003
9.439920e-003
9.439920e-003
9.439920e-003
9.439920e-003
9.439921e-003
9.439921e-003
9.439921e-003
9.439921e-003
9.439922e-003
9.439924e-003
9.439928e-003
9.439933e-003
9.439939e-003
9.439947e-003
9.439955e-003
9.439959e-003
9.439949e-003
9.439910e-003
9.439808e-003
9.439589e-003
9.439166e-003
9.438404e-003
9.437114e-003
9.435031e-003
9.431817e-003
9.427062e-003
9.420324e-003
9.411180e-003
9.399320e-003
9.384663e-003
9.367480e-003
9.348498e-003
9.328931e-003
9.310449e-003
9.295033e-003
9.284779e-003
9.281661e-003
9.287316e-003
9.302878e-003
9.328891e-003
9.365310e-003
9.411549e-003
9.466575e-003
9.529011e-003
9.597227e-003
9.669418e-003
9.743669e-003
9.818015e-003
9.890478e-003
9.959116e-003
1.002204e-002
1.007746e-002
1.012364e-002
1.015900e-002
1.018206e-002
1.019155e-002
1.018643e-002
1.016602e-002
1.013012e-002
1.007914e-002
1.001421e-002
9.937306e-003
9.851249e-003
9.759657e-003
9.666762e-003
9.577111e-003
9.495168e-003
9.424870e-003
9.369174e-003
9.329700e-003
9.306541e-003
9.298289e-003
9.302309e-003
9.315212e-003
9.333411e-003
9.353642e-003
9.373349e-003
9.390841e-003
9.405273e-003
9.416466e-003
9.424687e-003
9.430434e-003
9.434266e-003
9.436709e-003
9.438196e-003
9.439057e-003
9.439529e-003
9.439771e-003
9.439884e-003
9.439929e-003
9.439943e-003
9.439942e-003
9.439938e-003
9.439932e-003
9.439928e-003
9.439925e-003
9.439922e-003
9.439921e-003
9.439920e-003
9.439920e-003
9.439921e-003
9.439920e-003
9.439920e-003
9.439918e-003
9.439920e-003
9.439922e-003
9.439922e-003
9.439922e-003
9.439923e-003
9.439927e-003
9.439932e-003
9.439939e-003
9.439946e-003
9.439954e-003
9.439959e-003
9.439951e-003
9.439910e-003
9.439800e-003
9.439556e-003
9.439071e-003
9.438176e-003
9.436619e-003
9.434043e-003
9.429971e-003
9.423816e-003
9.414922e-003
9.402672e-003
9.386665e-003
9.366970e-003
9.344429e-003
9.320937e-003
9.299612e-003
9.284752e-003
9.281540e-003
9.295521e-003
9.331953e-003
9.395152e-003
9.487988e-003
9.611599e-003
9.765351e-003
9.947015e-003
1.015308e-002
1.037912e-002
1.062013e-002
1.087075e-002
1.112553e-002
1.137900e-002
1.162577e-002
1.186064e-002
1.207862e-002
1.227493e-002
1.244506e-002
1.258472e-002
1.268984e-002
1.275663e-002
1.278166e-002
1.276200e-002
1.269547e-002
1.258097e-002
1.241884e-002
1.221125e-002
1.196254e-002
1.167944e-002
1.137108e-002
1.104871e-002
1.072513e-002
1.041374e-002
1.012742e-002
9.877226e-003
9.671128e-003
9.513120e-003
9.402821e-003
9.335773e-003
9.304413e-003
9.299492e-003
9.311627e-003
9.332604e-003
9.356176e-003
9.378293e-003
9.396859e-003
9.411226e-003
9.421640e-003
9.428779e-003
9.433432e-003
9.436323e-003
9.438037e-003
9.439002e-003
9.439516e-003
9.439772e-003