# vtk DataFile Version 3.0
vtk output
ASCII
DATASET STRUCTURED_POINTS
DIMENSIONS 100 100 1
SPACING 1 1 1
ORIGIN 0 0 0
POINT_DATA 10000
SCALARS SFBox_profile double
LOOKUP_TABLE default 
0.000000e+000
0.000000e+000
0.000000e+000
0.000000e+000
0.000000e+000
0.000000e+000
0.000000e+000
0.000000e+000
0.000000e+000
0.000000e+000
0.000000e+000
0.000000e+000
0.000000e+000
0.000000e+000
0.000000e+000
0.000000e+000
0.000000e+000
0.000000e+000
0.000000e+000
0.000000e+000
0.000000e+000
0.000000e+000
0.000000e+000
0.000000e+000
0.000000e+000
0.000000e+000
0.000000e+000
0.000000e+000
0.000000e+000
0.000000e+000
0.000000e+000
0.000000e+000
0.000000e+000
0.000000e+000
0.000000e+000
0.000000e+000
0.000000e+000
0.000000e+000
0.000000e+000
0.000000e+000
0.000000e+000
0.000000e+000
0.000000e+000
0.000000e+000
0.000000e+000
0.000000e+000
0.000000e+000
0.000000e+000
0.000000e+000
0.000000e+000
0.000000e+000
0.000000e+000
0.000000e+000
0.000000e+000
0.000000e+000
0.000000e+000
0.000000e+000
0.000000e+000
0.000000e+000
0.000000e+000
0.000000e+000
0.000000e+000
0.000000e+000
0.000000e+000
0.000000e+000
0.000000e+000
0.000000e+000
0.000000e+000
0.000000e+000
0.000000e+000
0.000000e+000
0.000000e+000
0.000000e+000
0.000000e+000
0.000000e+000
0.000000e+000
0.000000e+000
0.000000e+000
0.000000e+000
0.000000e+000
0.000000e+000
0.000000e+000
0.000000e+000
0.000000e+000
0.000000e+000
0.000000e+000
0.000000e+000
0.000000e+000
0.000000e+000
0.000000e+000
0.000000e+000
0.000000e+000
0.000000e+000
0.000000e+000
0.000000e+000
0.000000e+000
0.000000e+000
0.000000e+000
0.000000e+000
0.000000e+000
-5.161720e-009
-3.225843e-009
-4.983383e-010
1.517943e-009
1.942284e-009
9.841068e-010
-3.742808e-010
-1.147907e-009
-9.678982e-010
-1.706652e-010
5.780989e-010
7.878211e-010
4.512063e-010
-7.069538e-012
-1.010497e-010
2.904450e-010
8.176151e-010
1.023896e-009
8.461171e-010
6.904717e-010
9.495371e-010
1.508242e-009
1.863649e-009
1.747932e-009
1.478570e-009
1.571589e-009
2.102115e-009
2.636745e-009
2.808922e-009
2.760233e-009
2.881062e-009
3.253730e-009
3.576519e-009
3.626891e-009
3.563275e-009
3.649303e-009
3.855061e-009
3.944266e-009
3.885616e-009
3.920575e-009
4.163138e-009
4.367925e-009
4.279342e-009
4.060109e-009
4.103138e-009
4.437600e-009
4.618843e-009
4.344846e-009
3.938380e-009
3.937894e-009
4.316425e-009
4.465824e-009
4.046599e-009
3.521285e-009
3.553433e-009
4.057126e-009
4.256887e-009
3.749948e-009
3.111342e-009
3.141828e-009
3.743569e-009
3.996171e-009
3.393331e-009
2.565266e-009
2.455011e-009
3.027597e-009
3.280251e-009
2.586500e-009
1.572887e-009
1.313741e-009
1.890715e-009
2.252756e-009
1.598909e-009
4.640529e-010
5.331116e-011
6.762023e-010
1.327545e-009
9.722127e-010
-1.236174e-010
-7.260974e-010
-1.970544e-010
7.052013e-010
7.837129e-010
-1.044740e-010
-8.763168e-010
-5.551310e-010
5.360220e-010
1.137093e-009
5.028682e-010
-7.509871e-010
-1.322905e-009
-6.094672e-010
6.996078e-010
1.355514e-009
7.684662e-010
-4.941689e-010
-1.298503e-009
-9.679694e-010
1.802180e-010
1.161896e-009
-5.936199e-010
-2.982866e-010
8.103371e-011
2.916520e-010
2.334151e-010
1.317140e-011
-1.713506e-010
-1.933951e-010
-6.087082e-011
1.339951e-010
2.867975e-010
3.201916e-010
2.238059e-010
1.009488e-010
1.310663e-010
4.036066e-010
7.814496e-010
1.009216e-009
1.007826e-009
1.001215e-009
1.264101e-009
1.768421e-009
2.193820e-009
2.323532e-009
2.316969e-009
2.483314e-009
2.850561e-009
3.118945e-009
3.066152e-009
2.841380e-009
2.741703e-009
2.798164e-009
2.761643e-009
2.489271e-009
2.151565e-009
1.961281e-009
1.847040e-009
1.574382e-009
1.128505e-009
7.593744e-010
5.991397e-010
4.371534e-010
2.936885e-011
-5.012269e-010
-8.031416e-010
-8.146225e-010
-8.897363e-010
-1.292374e-009
-1.771073e-009
-1.873605e-009
-1.597571e-009
-1.430289e-009
-1.665180e-009
-1.947902e-009
-1.737711e-009
-1.076033e-009
-5.678174e-010
-5.553172e-010
-6.247138e-010
-1.670023e-010
7.531203e-010
1.434880e-009
1.469769e-009
1.295397e-009
1.593067e-009
2.332600e-009
2.776227e-009
2.460763e-009
1.834937e-009
1.676800e-009
2.061537e-009
2.265895e-009
1.744850e-009
8.803069e-010
5.038806e-010
8.229343e-010
1.162078e-009
8.510980e-010
9.445474e-011
-2.970751e-010
5.312609e-011
6.126158e-010
6.107558e-010
-1.600462e-011
-5.715045e-010
-4.546590e-010
1.510562e-010
5.428946e-010
3.241292e-010
-2.010270e-010
-4.440897e-010
-1.912971e-010
2.351726e-010
3.917910e-010
1.675161e-010
-1.800794e-010
-3.369160e-010
-2.095082e-010
6.142966e-011
2.641253e-010
4.408704e-009
2.840148e-009
5.801854e-010
-1.181299e-009
-1.674427e-009
-9.612132e-010
2.131163e-010
9.865874e-010
9.588990e-010
3.827059e-010
-1.455002e-010
-2.144199e-010
1.159922e-010
4.952439e-010
6.887656e-010
7.661545e-010
9.192981e-010
1.194921e-009
1.475916e-009
1.679139e-009
1.863444e-009
2.112207e-009
2.389265e-009
2.579023e-009
2.624513e-009
2.540625e-009
2.303263e-009
1.828630e-009
1.106374e-009
2.706098e-010
-5.471633e-010
-1.394015e-009
-2.421603e-009
-3.639407e-009
-4.859078e-009
-5.941208e-009
-6.997456e-009
-8.232134e-009
-9.629079e-009
-1.094239e-008
-1.202507e-008
-1.302526e-008
-1.415362e-008
-1.535191e-008
-1.635262e-008
-1.705253e-008
-1.765204e-008
-1.834334e-008
-1.899696e-008
-1.931451e-008
-1.924037e-008
-1.903535e-008
-1.889281e-008
-1.864138e-008
-1.796539e-008
-1.683847e-008
-1.556063e-008
-1.434959e-008
-1.306399e-008
-1.144241e-008
-9.515448e-009
-7.615140e-009
-5.978846e-009
-4.502460e-009
-2.971569e-009
-1.430470e-009
-1.747279e-010
6.112190e-010
1.069005e-009
1.455782e-009
1.815555e-009
1.974107e-009
1.832076e-009
1.534508e-009
1.298372e-009
1.160227e-009
9.905240e-010
7.260627e-010
4.775371e-010
3.730099e-010
3.796077e-010
3.574442e-010
2.501483e-010
1.280738e-010
4.011498e-011
-7.099751e-011
-2.338017e-010
-3.009424e-010
-7.622705e-011
3.734911e-010
6.452609e-010
3.725612e-010
-3.152833e-010
-8.080649e-010
-5.863833e-010
2.140498e-010
8.674735e-010
7.394058e-010
-8.234136e-011
-8.467728e-010
5.419979e-009
3.352976e-009
4.415180e-010
-1.699511e-009
-2.103613e-009
-9.748416e-010
6.031281e-010
1.488245e-009
1.238963e-009
3.125667e-010
-3.958272e-010
-2.987733e-010
4.564029e-010
1.224692e-009
1.513346e-009
1.404353e-009
1.358811e-009
1.667509e-009
2.158222e-009
2.430974e-009
2.289267e-009
1.871691e-009
1.396811e-009
8.701721e-010
7.225834e-011
-1.219987e-009
-3.048037e-009
-5.278939e-009
-7.741694e-009
-1.035494e-008
-1.316234e-008
-1.625873e-008
-1.965685e-008
-2.321730e-008
-2.674077e-008
-3.014841e-008
-3.353816e-008
-3.702568e-008
-4.055408e-008
-4.391925e-008
-4.698676e-008
-4.982022e-008
-5.255652e-008
-5.519935e-008
-5.760022e-008
-5.963183e-008
-6.131039e-008
-6.271911e-008
-6.385789e-008
-6.461495e-008
-6.487014e-008
-6.458483e-008
-6.378881e-008
-6.250783e-008
-6.071078e-008
-5.831408e-008
-5.524778e-008
-5.154829e-008
-4.738167e-008
-4.293059e-008
-3.824675e-008
-3.327356e-008
-2.806231e-008
-2.291271e-008
-1.819852e-008
-1.404617e-008
-1.029048e-008
-6.812064e-009
-3.825296e-009
-1.687475e-009
-4.253634e-010
3.877475e-010
1.175437e-009
1.872208e-009
2.062733e-009
1.614289e-009
9.882659e-010
7.763981e-010
1.007242e-009
1.118685e-009
6.843325e-010
3.431794e-012
-2.200193e-010
2.383387e-010
7.683911e-010
5.991094e-010
-2.539022e-010
-9.116815e-010
-5.884551e-010
4.756972e-010
1.186173e-009
7.320313e-010
-5.249890e-010
-1.370104e-009
-9.422312e-010
4.027982e-010
1.423138e-009
1.166464e-009
-1.459086e-010
-1.332693e-009
1.712007e-009
9.036076e-010
-1.588623e-010
-7.944490e-010
-6.792683e-010
-1.454413e-011
6.804207e-010
9.415998e-010
6.580401e-010
1.432245e-010
-7.628471e-011
3.355903e-010
1.218848e-009
2.021808e-009
2.291120e-009
2.091494e-009
1.897788e-009
2.041188e-009
2.299737e-009
2.080788e-009
9.778594e-010
-9.272519e-010
-3.321810e-009
-6.129516e-009
-9.636294e-009
-1.417025e-008
-1.974808e-008
-2.608527e-008
-3.290779e-008
-4.018109e-008
-4.802713e-008
-5.647691e-008
-6.535246e-008
-7.437657e-008
-8.335214e-008
-9.222072e-008
-1.009803e-007
-1.095861e-007
-1.179328e-007
-1.259008e-007
-1.333996e-007
-1.403846e-007
-1.468613e-007
-1.528603e-007
-1.583659e-007
-1.632537e-007
-1.673443e-007
-1.705571e-007
-1.729687e-007
-1.746401e-007
-1.753914e-007
-1.748580e-007
-1.728373e-007
-1.694879e-007
-1.650551e-007
-1.594363e-007
-1.522150e-007
-1.432188e-007
-1.328843e-007
-1.218678e-007
-1.103611e-007
-9.806229e-008
-8.492369e-008
-7.167924e-008
-5.934807e-008
-4.828603e-008
-3.805524e-008
-2.834131e-008
-1.969518e-008
-1.303279e-008
-8.485874e-009
-5.144317e-009
-2.109127e-009
4.805738e-010
1.807867e-009
1.679443e-009
1.051755e-009
1.041010e-009
1.654750e-009
1.883375e-009
1.071802e-009
-1.464783e-010
-5.394484e-010
2.436406e-010
1.213859e-009
1.168258e-009
6.307033e-011
-9.585959e-010
-8.675182e-010
1.402379e-010
9.266592e-010
6.746723e-010
-2.949142e-010
-9.522466e-010
-6.514630e-010
2.786715e-010
9.413447e-010
7.463368e-010
-9.966905e-011
-8.402022e-010
-3.301913e-009
-2.192969e-009
-5.315226e-010
8.636641e-010
1.385976e-009
1.015658e-009
2.872068e-010
-1.609500e-010
-6.120237e-011
4.133164e-010
9.744069e-010
1.512847e-009
2.046007e-009
2.489586e-009
2.635839e-009
2.382925e-009
1.853125e-009
1.150819e-009
1.851508e-011
-2.146880e-009
-5.875682e-009
-1.128231e-008
-1.820037e-008
-2.660407e-008
-3.677311e-008
-4.900126e-008
-6.323439e-008
-7.909410e-008
-9.623210e-008
-1.145514e-007
-1.340400e-007
-1.544795e-007
-1.754240e-007
-1.964559e-007
-2.173652e-007
-2.380442e-007
-2.582965e-007
-2.778503e-007
-2.965356e-007
-3.143321e-007
-3.312019e-007
-3.469672e-007
-3.614446e-007
-3.746375e-007
-3.866487e-007
-3.973767e-007
-4.064444e-007
-4.135363e-007
-4.186948e-007
-4.220856e-007
-4.234786e-007
-4.222007e-007
-4.177454e-007
-4.102564e-007
-4.001543e-007
-3.873506e-007
-3.711801e-007
-3.512776e-007
-3.282611e-007
-3.032246e-007
-2.766644e-007
-2.483364e-007
-2.183222e-007
-1.878525e-007
-1.586520e-007
-1.315718e-007
-1.063282e-007
-8.271501e-008
-6.161832e-008
-4.437092e-008
-3.123706e-008
-2.106468e-008
-1.262860e-008
-5.926610e-009
-1.738940e-009
-7.487910e-011
3.883845e-010
1.087739e-009
2.137404e-009
2.517614e-009
1.629207e-009
2.363205e-010
-3.462304e-010
2.506599e-010
1.108514e-009
1.157481e-009
3.484393e-010
-4.598920e-010
-5.747979e-010
-1.463213e-010
2.157776e-010
2.152338e-010
6.508721e-011
3.609530e-011
8.135213e-011
2.180886e-012
-1.811070e-010
-2.218342e-010
-5.116210e-012
2.511629e-010
-5.313335e-009
-3.236727e-009
-2.615247e-010
1.974334e-009
2.410514e-009
1.249271e-009
-2.544160e-010
-7.963011e-010
-1.194109e-011
1.394713e-009
2.433661e-009
2.703815e-009
2.525517e-009
2.337860e-009
2.108713e-009
1.341823e-009
-5.066910e-010
-3.797173e-009
-8.876108e-009
-1.629141e-008
-2.669376e-008
-4.055421e-008
-5.808526e-008
-7.943361e-008
-1.048091e-007
-1.343178e-007
-1.677203e-007
-2.044753e-007
-2.440321e-007
-2.859807e-007
-3.298714e-007
-3.750013e-007
-4.205321e-007
-4.658297e-007
-5.105743e-007
-5.544947e-007
-5.971134e-007
-6.378879e-007
-6.765559e-007
-7.131692e-007
-7.477254e-007
-7.799087e-007
-8.093273e-007
-8.359119e-007
-8.598492e-007
-8.810718e-007
-8.990222e-007
-9.130918e-007
-9.231464e-007
-9.293344e-007
-9.313652e-007
-9.282957e-007
-9.192464e-007
-9.041267e-007
-8.833237e-007
-8.567373e-007
-8.235656e-007
-7.832837e-007
-7.365535e-007
-6.847867e-007
-6.289303e-007
-5.691898e-007
-5.061378e-007
-4.416664e-007
-3.783549e-007
-3.179802e-007
-2.611093e-007
-2.082362e-007
-1.607815e-007
-1.204513e-007
-8.774079e-008
-6.158854e-008
-4.066097e-008
-2.457367e-008
-1.350887e-008
-6.897691e-009
-3.063565e-009
-3.635320e-010
1.653520e-009
2.520911e-009
2.094810e-009
1.125579e-009
5.469501e-010
5.558967e-010
6.690252e-010
5.263125e-010
2.952514e-010
2.443781e-010
2.510471e-010
9.466247e-012
-3.901575e-010
-4.310553e-010
1.446688e-010
8.258627e-010
7.828582e-010
-1.408397e-010
-1.093548e-009
-1.050651e-009
4.633585e-011
1.142881e-009
-2.816476e-009
-1.501156e-009
3.571494e-010
1.664590e-009
1.716771e-009
7.357550e-010
-2.437078e-010
-1.820917e-010
1.084082e-009
2.701809e-009
3.571059e-009
3.279721e-009
2.266331e-009
1.071547e-009
-5.206076e-010
-3.603249e-009
-9.534785e-009
-1.934285e-008
-3.371524e-008
-5.338367e-008
-7.931870e-008
-1.125157e-007
-1.536758e-007
-2.031026e-007
-2.607629e-007
-3.262896e-007
-3.989310e-007
-4.776290e-007
-5.612248e-007
-6.485541e-007
-7.383319e-007
-8.290851e-007
-9.193844e-007
-1.008194e-006
-1.094895e-006
-1.178921e-006
-1.259484e-006
-1.335803e-006
-1.407536e-006
-1.474785e-006
-1.537595e-006
-1.595587e-006
-1.648238e-006
-1.695416e-006
-1.737368e-006
-1.774088e-006
-1.804915e-006
-1.828968e-006
-1.845832e-006
-1.855504e-006
-1.857603e-006
-1.850979e-006
-1.834344e-006
-1.807145e-006
-1.769440e-006
-1.720976e-006
-1.660831e-006
-1.588268e-006
-1.503721e-006
-1.408597e-006
-1.304218e-006
-1.191476e-006
-1.071743e-006
-9.477631e-007
-8.232019e-007
-7.013522e-007
-5.846157e-007
-4.752067e-007
-3.757791e-007
-2.888281e-007
-2.155113e-007
-1.553930e-007
-1.073723e-007
-7.051985e-008
-4.385786e-008
-2.570560e-008
-1.378099e-008
-6.077759e-009
-1.417098e-009
9.174385e-010
1.755698e-009
1.949426e-009
1.859708e-009
1.356702e-009
4.802563e-010
-1.741126e-010
-1.020761e-011
7.409284e-010
1.114225e-009
4.978406e-010
-5.663958e-010
-9.247283e-010
-1.441374e-010
9.221410e-010
1.042406e-009
-1.181368e-011
-1.167344e-009
-1.183008e-009
1.374992e-011
1.225879e-009
1.994219e-009
1.436188e-009
7.096291e-010
2.339189e-010
1.464693e-010
3.575735e-010
8.202834e-010
1.603422e-009
2.642849e-009
3.517512e-009
3.619298e-009
2.574134e-009
3.592597e-010
-3.170463e-009
-8.939266e-009
-1.880110e-008
-3.501312e-008
-5.958366e-008
-9.411493e-008
-1.401225e-007
-1.992699e-007
-2.731300e-007
-3.626748e-007
-4.679499e-007
-5.881012e-007
-7.215649e-007
-8.662427e-007
-1.019672e-006
-1.179224e-006
-1.342246e-006
-1.506088e-006
-1.668177e-006
-1.826287e-006
-1.978816e-006
-2.124749e-006
-2.263283e-006
-2.393559e-006
-2.514858e-006
-2.626993e-006
-2.730284e-006
-2.825023e-006
-2.911051e-006
-2.987997e-006
-3.055835e-006
-3.114955e-006
-3.165548e-006
-3.207102e-006
-3.238712e-006
-3.259800e-006
-3.270241e-006
-3.269675e-006
-3.256965e-006
-3.230595e-006
-3.189485e-006
-3.133117e-006
-3.060827e-006
-2.971355e-006
-2.863380e-006
-2.736400e-006
-2.590862e-006
-2.427564e-006
-2.247424e-006
-2.052119e-006
-1.844826e-006
-1.630121e-006
-1.413215e-006
-1.199442e-006
-9.942890e-007
-8.032756e-007
-6.312212e-007
-4.813941e-007
-3.552849e-007
-2.529281e-007
-1.731325e-007
-1.134781e-007
-7.061242e-008
-4.104832e-008
-2.181530e-008
-1.035161e-008
-4.069267e-009
-5.362199e-010
1.703168e-009
2.782598e-009
2.375730e-009
9.259574e-010
-2.450532e-010
-1.424654e-010
8.535234e-010
1.435020e-009
8.396150e-010
-3.489064e-010
-9.353051e-010
-4.494330e-010
4.341252e-010
7.374924e-010
2.254402e-010
-4.608782e-010
-5.798744e-010
-5.732095e-011
5.083887e-010
5.447599e-009
3.346329e-009
5.889149e-010
-1.048741e-009
-7.512108e-010
9.145188e-010
2.682881e-009
3.642179e-009
3.691775e-009
3.126356e-009
1.908884e-009
-6.792970e-010
-5.922055e-009
-1.552507e-008
-3.173891e-008
-5.752786e-008
-9.641893e-008
-1.520553e-007
-2.278213e-007
-3.267194e-007
-4.512532e-007
-6.030196e-007
-7.821199e-007
-9.868122e-007
-1.213650e-006
-1.457951e-006
-1.714310e-006
-1.977027e-006
-2.240511e-006
-2.499613e-006
-2.749857e-006
-2.987577e-006
-3.210067e-006
-3.415682e-006
-3.603729e-006
-3.774104e-006
-3.926982e-006
-4.062811e-006
-4.182499e-006
-4.287349e-006
-4.378621e-006
-4.457128e-006
-4.523349e-006
-4.577903e-006
-4.621745e-006
-4.655762e-006
-4.680286e-006
-4.695200e-006
-4.700530e-006
-4.696721e-006
-4.684190e-006
-4.662716e-006
-4.631444e-006
-4.589393e-006
-4.535685e-006
-4.469100e-006
-4.387541e-006
-4.288079e-006
-4.167483e-006
-4.022642e-006
-3.850659e-006
-3.649049e-006
-3.416356e-006
-3.152985e-006
-2.861831e-006
-2.548552e-006
-2.221461e-006
-1.890927e-006
-1.568232e-006
-1.264226e-006
-9.882792e-007
-7.475490e-007
-5.462355e-007
-3.849204e-007
-2.607088e-007
-1.685765e-007
-1.031075e-007
-5.928105e-008
-3.208463e-008
-1.619757e-008
-6.816266e-009
-9.871649e-010
2.168771e-009
2.788286e-009
1.721346e-009
5.358571e-010
2.977291e-010
7.797134e-010
1.057882e-009
6.785348e-010
1.974702e-011
-3.498841e-010
-3.157473e-010
-1.287138e-010
4.894543e-011
2.430092e-010
3.993386e-010
3.119742e-010
-7.063112e-011
-4.458998e-010
5.362319e-009
3.198736e-009
4.471170e-010
-9.234723e-010
-2.462299e-011
2.334362e-009
4.377279e-009
4.775213e-009
3.437366e-009
9.389435e-010
-2.863430e-009
-9.776493e-009
-2.311897e-008
-4.698080e-008
-8.582095e-008
-1.446659e-007
-2.293411e-007
-3.461278e-007
-5.008504e-007
-6.978306e-007
-9.390024e-007
-1.223215e-006
-1.545783e-006
-1.898546e-006
-2.270594e-006
-2.649473e-006
-3.022470e-006
-3.377712e-006
-3.705036e-006
-3.996615e-006
-4.247253e-006
-4.454308e-006
-4.617391e-006
-4.737997e-006
-4.819120e-006
-4.864768e-006
-4.879435e-006
-4.867701e-006
-4.834053e-006
-4.782796e-006
-4.717849e-006
-4.642511e-006
-4.559457e-006
-4.471113e-006
-4.380060e-006
-4.289086e-006
-4.200923e-006
-4.118159e-006
-4.043545e-006
-3.980334e-006
-3.932129e-006
-3.902260e-006
-3.893242e-006
-3.906627e-006
-3.942955e-006
-4.001329e-006
-4.078608e-006
-4.168657e-006
-4.262110e-006
-4.346744e-006
-4.408248e-006
-4.431194e-006
-4.400252e-006
-4.301931e-006
-4.126956e-006
-3.872787e-006
-3.545161e-006
-3.157803e-006
-2.730527e-006
-2.286720e-006
-1.850797e-006
-1.445384e-006
-1.088079e-006
-7.888563e-007
-5.496862e-007
-3.666694e-007
-2.329698e-007
-1.405464e-007
-8.050699e-008
-4.355437e-008
-2.143125e-008
-8.417950e-009
-1.394338e-009
1.491976e-009
1.990533e-009
1.680212e-009
1.327695e-009
9.176231e-010
4.057640e-010
1.210488e-010
2.980081e-010
5.672633e-010
3.379038e-010
-3.363767e-010
-6.669097e-010
-1.146544e-010
7.845387e-010
9.383335e-010
3.362136e-011
-9.871340e-010
2.299036e-009
1.657580e-009
9.391473e-010
9.330115e-010
2.038220e-009
3.760409e-009
4.861456e-009
4.158892e-009
1.134465e-009
-4.535916e-009
-1.437362e-008
-3.223199e-008
-6.424354e-008
-1.179075e-007
-2.014072e-007
-3.236297e-007
-4.941791e-007
-7.223640e-007
-1.014980e-006
-1.373702e-006
-1.793099e-006
-2.259811e-006
-2.753014e-006
-3.246160e-006
-3.709791e-006
-4.114894e-006
-4.436002e-006
-4.653489e-006
-4.754871e-006
-4.735176e-006
-4.596449e-006
-4.346513e-006
-3.997340e-006
-3.563498e-006
-3.060948e-006
-2.506077e-006
-1.914756e-006
-1.301443e-006
-6.786591e-007
-5.700226e-008
5.545483e-007
1.148409e-006
1.718235e-006
2.258485e-006
2.763597e-006
3.227214e-006
3.641933e-006
3.999453e-006
4.290598e-006
4.505030e-006
4.631159e-006
4.656760e-006
4.570164e-006
4.361441e-006
4.023267e-006
3.551909e-006
2.948841e-006
2.222939e-006
1.392401e-006
4.854868e-007
-4.600607e-007
-1.398450e-006
-2.278044e-006
-3.045110e-006
-3.649811e-006
-4.053639e-006
-4.235971e-006
-4.197566e-006
-3.960503e-006
-3.565231e-006
-3.065143e-006
-2.518624e-006
-1.979556e-006
-1.489134e-006
-1.072077e-006
-7.378537e-007
-4.846581e-007
-3.033746e-007
-1.806560e-007
-1.017741e-007
-5.339839e-008
-2.528429e-008
-1.017480e-008
-2.785795e-009
6.713069e-010
2.255107e-009
2.480524e-009
1.487599e-009
1.252416e-010
-3.592270e-010
3.765089e-010
1.277959e-009
1.082644e-009
-1.436079e-010
-1.045748e-009
-6.177157e-010
5.583628e-010
1.017711e-009
2.043936e-010
-8.621585e-010
-1.361407e-009
2.162596e-010
2.288549e-009
3.746652e-009
4.317311e-009
4.290056e-009
3.563257e-009
1.092447e-009
-5.014435e-009
-1.754479e-008
-4.096623e-008
-8.245691e-008
-1.522338e-007
-2.629582e-007
-4.287902e-007
-6.643584e-007
-9.829312e-007
-1.392863e-006
-1.892508e-006
-2.465245e-006
-3.076720e-006
-3.675638e-006
-4.198246e-006
-4.575677e-006
-4.742671e-006
-4.645812e-006
-4.249561e-006
-3.539078e-006
-2.519896e-006
-1.215202e-006
3.383680e-007
2.095618e-006
4.007587e-006
6.025497e-006
8.103433e-006
1.019995e-005
1.227914e-005
1.431150e-005
1.627403e-005
1.814957e-005
1.992527e-005
2.159132e-005
2.314003e-005
2.456494e-005
2.585937e-005
2.701470e-005
2.801942e-005
2.885914e-005
2.951678e-005
2.997240e-005
3.020284e-005
3.018205e-005
2.988262e-005
2.927777e-005
2.834308e-005
2.705829e-005
2.541019e-005
2.339700e-005
2.103366e-005
1.835626e-005
1.542497e-005
1.232558e-005
9.169087e-006
6.087449e-006
3.223334e-006
7.141629e-007
-1.326298e-006
-2.824517e-006
-3.758625e-006
-4.162406e-006
-4.119909e-006
-3.750040e-006
-3.184083e-006
-2.542706e-006
-1.919485e-006
-1.374302e-006
-9.352815e-007
-6.057347e-007
-3.730759e-007
-2.176066e-007
-1.192496e-007
-6.088659e-008
-2.877438e-008
-1.213001e-008
-3.415530e-009
1.242497e-009
2.957017e-009
2.243998e-009
5.462635e-010
-2.949324e-010
3.403471e-010
1.360041e-009
1.342221e-009
1.861808e-010
-8.769443e-010
-8.060144e-010
8.456974e-011
6.380966e-010
2.941762e-010
-3.276894e-010
-3.199823e-009
5.937663e-011
4.102519e-009
6.243443e-009
5.704108e-009
3.452763e-009
9.884733e-011
-6.064139e-009
-1.951690e-008
-4.708662e-008
-9.801449e-008
-1.848686e-007
-3.243501e-007
-5.368475e-007
-8.441573e-007
-1.265001e-006
-1.807828e-006
-2.461031e-006
-3.182581e-006
-3.893055e-006
-4.476212e-006
-4.789108e-006
-4.680428e-006
-4.012887e-006
-2.684318e-006
-6.426084e-007
2.108511e-006
5.513044e-006
9.473461e-006
1.386515e-005
1.855130e-005
2.339602e-005
2.827453e-005
3.307975e-005
3.772548e-005
4.214666e-005
4.629799e-005
5.015166e-005
5.369460e-005
5.692485e-005
5.984754e-005
6.247154e-005
6.480738e-005
6.686589e-005
6.865658e-005
7.018584e-005
7.145571e-005
7.246390e-005
7.320413e-005
7.366573e-005
7.383222e-005
7.367992e-005
7.317739e-005
7.228524e-005
7.095561e-005
6.913168e-005
6.674889e-005
6.373993e-005
6.004383e-005
5.561853e-005
5.045593e-005
4.459936e-005
3.816065e-005
3.133111e-005
2.437889e-005
1.762822e-005
1.142138e-005
6.069743e-006
1.803824e-006
-1.265945e-006
-3.166106e-006
-4.048091e-006
-4.149335e-006
-3.739817e-006
-3.070635e-006
-2.338024e-006
-1.668561e-006
-1.123639e-006
-7.163484e-007
-4.321502e-007
-2.458802e-007
-1.315576e-007
-6.615427e-008
-3.087782e-008
-1.224094e-008
-2.480074e-009
1.847046e-009
2.508303e-009
1.413259e-009
4.572857e-010
4.470287e-010
8.763847e-010
9.065895e-010
3.696439e-010
-2.257512e-010
-4.039561e-010
-1.891481e-010
7.944126e-011
1.791433e-010
1.600276e-010
-1.973666e-009
1.539673e-009
5.710671e-009
7.385830e-009
5.502305e-009
7.980820e-010
-6.906068e-009
-2.143649e-008
-5.118443e-008
-1.086568e-007
-2.103309e-007
-3.774774e-007
-6.366446e-007
-1.017359e-006
-1.544765e-006
-2.225911e-006
-3.030239e-006
-3.868081e-006
-4.574947e-006
-4.911273e-006
-4.584348e-006
-3.291610e-006
-7.758016e-007
3.122504e-006
8.429163e-006
1.502621e-005
2.266798e-005
3.101788e-005
3.969561e-005
4.832363e-005
5.656443e-005
6.414483e-005
7.086754e-005
7.661244e-005
8.133017e-005
8.503062e-005
8.776873e-005
8.963012e-005
9.071800e-005
9.114212e-005
9.101041e-005
9.042395e-005
8.947598e-005
8.825343e-005
8.683948e-005
8.531575e-005
8.376448e-005
8.227068e-005
8.092340e-005
7.981438e-005
7.903327e-005
7.865980e-005
7.875360e-005
7.934166e-005
8.040280e-005
8.185010e-005
8.351435e-005
8.513373e-005
8.635501e-005
8.675106e-005
8.585954e-005
8.324590e-005
7.858718e-005
7.176174e-005
6.292012e-005
5.251071e-005
4.124214e-005
2.998087e-005
1.960174e-005
1.082747e-005
4.102833e-006
-4.606754e-007
-3.058989e-006
-4.103085e-006
-4.093955e-006
-3.505328e-006
-2.704795e-006
-1.925573e-006
-1.281014e-006
-8.015032e-007
-4.726838e-007
-2.627843e-007
-1.375682e-007
-6.730446e-008
-2.977535e-008
-1.067405e-008
-1.818701e-009
1.453144e-009
2.039581e-009
1.628164e-009
9.556263e-010
3.494731e-010
1.085883e-010
3.116154e-010
5.694128e-010
3.979529e-010
-1.296037e-010
-4.109123e-010
-1.081194e-010
3.606533e-010
2.138584e-009
4.289711e-009
6.589066e-009
6.651349e-009
3.076356e-009
-5.177093e-009
-2.125471e-008
-5.301195e-008
-1.144126e-007
-2.259096e-007
-4.147368e-007
-7.148939e-007
-1.164281e-006
-1.794550e-006
-2.609249e-006
-3.548935e-006
-4.449050e-006
-5.005942e-006
-4.773228e-006
-3.207420e-006
2.339559e-007
5.960769e-006
1.412096e-005
2.451318e-005
3.656852e-005
4.940900e-005
6.197001e-005
7.315418e-005
8.197803e-005
8.768127e-005
8.978388e-005
8.809288e-005
8.267225e-005
7.379267e-005
6.187411e-005
4.742869e-005
3.100824e-005
1.316002e-005
-5.606219e-006
-2.483842e-005
-4.414963e-005
-6.321382e-005
-8.175236e-005
-9.951470e-005
-1.162575e-004
-1.317253e-004
-1.456353e-004
-1.576657e-004
-1.674503e-004
-1.745797e-004
-1.786121e-004
-1.790929e-004
-1.755854e-004
-1.677122e-004
-1.552085e-004
-1.379890e-004
-1.162253e-004
-9.042454e-005
-6.149701e-005
-3.079283e-005
-8.039994e-008
2.856197e-005
5.296110e-005
7.116162e-005
8.178611e-005
8.435323e-005
7.944639e-005
6.865024e-005
5.424349e-005
3.872479e-005
2.430626e-005
1.252538e-005
4.083332e-006
-1.084289e-006
-3.573852e-006
-4.216116e-006
-3.815162e-006
-2.988030e-006
-2.117709e-006
-1.387849e-006
-8.506703e-007
-4.903155e-007
-2.659056e-007
-1.349423e-007
-6.319738e-008
-2.659725e-008
-9.364710e-009
-1.699092e-009
1.649517e-009
2.637263e-009
1.859199e-009
3.221582e-010
-4.681342e-010
1.143051e-010
1.090035e-009
1.084857e-009
6.074574e-011
-7.069422e-010
-3.743803e-010
3.790633e-010
7.858676e-009
7.501114e-009
6.449966e-009
3.737144e-009
-2.888462e-009
-1.803431e-008
-5.017848e-008
-1.135673e-007
-2.303295e-007
-4.323539e-007
-7.616752e-007
-1.266385e-006
-1.986455e-006
-2.921728e-006
-3.976397e-006
-4.885096e-006
-5.146050e-006
-4.007049e-006
-5.528930e-007
6.084419e-006
1.642239e-005
3.031095e-005
4.670675e-005
6.362853e-005
7.834705e-005
8.778502e-005
8.901541e-005
7.972611e-005
5.853982e-005
2.512579e-005
-1.988841e-005
-7.513786e-005
-1.387877e-004
-2.087802e-004
-2.830311e-004
-3.595727e-004
-4.366510e-004
-5.127851e-004
-5.867902e-004
-6.577679e-004
-7.250702e-004
-7.882437e-004
-8.469647e-004
-9.009720e-004
-9.500064e-004
-9.937590e-004
-1.031833e-003
-1.063719e-003
-1.088777e-003
-1.106231e-003
-1.115175e-003
-1.114583e-003
-1.103341e-003
-1.080284e-003
-1.044268e-003
-9.942784e-004
-9.295848e-004
-8.499674e-004
-7.559949e-004
-6.493397e-004
-5.330615e-004
-4.117549e-004
-2.914301e-004
-1.790180e-004
-8.147436e-005
-4.590166e-006
4.822970e-005
7.682438e-005
8.436041e-005
7.648458e-005
5.985282e-005
4.059370e-005
2.317970e-005
1.000143e-005
1.604389e-006
-2.702534e-006
-4.157822e-006
-4.000468e-006
-3.168289e-006
-2.225634e-006
-1.432385e-006
-8.583327e-007
-4.819872e-007
-2.532740e-007
-1.237391e-007
-5.589182e-008
-2.311982e-008
-7.860975e-009
-4.339677e-010
2.782159e-009
2.747531e-009
9.032847e-010
-4.346449e-010
-2.586985e-011
1.126253e-009
1.256414e-009
1.408852e-010
-7.675899e-010
-4.246144e-010
4.265284e-010
1.327913e-008
1.008273e-008
4.961461e-009
-2.033949e-009
-1.502390e-008
-4.388120e-008
-1.047419e-007
-2.213011e-007
-4.278404e-007
-7.719978e-007
-1.311891e-006
-2.098906e-006
-3.134271e-006
-4.287882e-006
-5.180765e-006
-5.066311e-006
-2.791853e-006
3.051073e-006
1.371104e-005
2.961639e-005
4.962020e-005
7.040726e-005
8.636013e-005
9.013978e-005
7.393300e-005
3.102676e-005
-4.274376e-005
-1.481697e-004
-2.826965e-004
-4.411302e-004
-6.166639e-004
-8.019103e-004
-9.897481e-004
-1.173913e-003
-1.349339e-003
-1.512299e-003
-1.660384e-003
-1.792372e-003
-1.908007e-003
-2.007748e-003
-2.092518e-003
-2.163490e-003
-2.221924e-003
-2.269066e-003
-2.306094e-003
-2.334096e-003
-2.354074e-003
-2.366947e-003
-2.373555e-003
-2.374625e-003
-2.370713e-003
-2.362097e-003
-2.348620e-003
-2.329483e-003
-2.303004e-003
-2.266375e-003
-2.215485e-003
-2.144925e-003
-2.048331e-003
-1.919241e-003
-1.752591e-003
-1.546771e-003
-1.305752e-003
-1.040412e-003
-7.680828e-004
-5.098778e-004
-2.864034e-004
-1.131585e-004
3.012905e-006
6.524835e-005
8.487850e-005
7.714876e-005
5.668068e-005
3.435821e-005
1.626978e-005
4.419702e-006
-1.780915e-006
-4.030369e-006
-4.084067e-006
-3.239118e-006
-2.240721e-006
-1.409972e-006
-8.224857e-007
-4.476003e-007
-2.270559e-007
-1.072446e-007
-4.718854e-008
-1.862986e-008
-4.909355e-009
1.425936e-009
2.975837e-009
1.706223e-009
1.939318e-010
7.518817e-011
8.220901e-010
9.373399e-010
8.844263e-011
-5.916704e-010
-2.387238e-010
5.171715e-010
1.638797e-008
1.075476e-008
1.339162e-009
-1.230416e-008
-3.766163e-008
-9.146752e-008
-1.999566e-007
-4.002366e-007
-7.436416e-007
-1.295732e-006
-2.120332e-006
-3.228615e-006
-4.472101e-006
-5.372158e-006
-4.926748e-006