# vtk DataFile Version 3.0
vtk output
ASCII
DATASET STRUCTURED_POINTS
DIMENSIONS 100 100 1
SPACING 1 1 1
ORIGIN 0 0 0
POINT_DATA 10000
SCALARS SFBox_profile double
LOOKUP_TABLE default 
9.439920e-003
9.439920e-003
9.439920e-003
9.439920e-003
9.439920e-003
9.439920e-003
9.439920e-003
9.439921e-003
9.439920e-003
9.439920e-003
9.439919e-003
9.439919e-003
9.439919e-003
9.439920e-003
9.439920e-003
9.439921e-003
9.439921e-003
9.439920e-003
9.439920e-003
9.439920e-003
9.439920e-003
9.439920e-003
9.439920e-003
9.439919e-003
9.439919e-003
9.439920e-003
9.439920e-003
9.439920e-003
9.439920e-003
9.439920e-003
9.439921e-003
9.439921e-003
9.439921e-003
9.439921e-003
9.439922e-003
9.439922e-003
9.439922e-003
9.439922e-003
9.439922e-003
9.439922e-003
9.439922e-003
9.439922e-003
9.439922e-003
9.439923e-003
9.439923e-003
9.439923e-003
9.439923e-003
9.439923e-003
9.439923e-003
9.439923e-003
9.439923e-003
9.439923e-003
9.439923e-003
9.439923e-003
9.439923e-003
9.439923e-003
9.439923e-003
9.439923e-003
9.439922e-003
9.439922e-003
9.439922e-003
9.439922e-003
9.439922e-003
9.439922e-003
9.439922e-003
9.439922e-003
9.439921e-003
9.439921e-003
9.439921e-003
9.439921e-003
9.439921e-003
9.439921e-003
9.439920e-003
9.439920e-003
9.439920e-003
9.439920e-003
9.439920e-003
9.439920e-003
9.439920e-003
9.439920e-003
9.439920e-003
9.439920e-003
9.439920e-003
9.439920e-003
9.439921e-003
9.439920e-003
9.439920e-003
9.439920e-003
9.439920e-003
9.439920e-003
9.439920e-003
9.439920e-003
9.439920e-003
9.439920e-003
9.439920e-003
9.439920e-003
9.439920e-003
9.439920e-003
9.439920e-003
9.439920e-003
9.439920e-003
9.439920e-003
9.439920e-003
9.439920e-003
9.439920e-003
9.439920e-003
9.439920e-003
9.439921e-003
9.439920e-003
9.439920e-003
9.439919e-003
9.439919e-003
9.439919e-003
9.439920e-003
9.439920e-003
9.439921e-003
9.439921e-003
9.439920e-003
9.439920e-003
9.439920e-003
9.439920e-003
9.439920e-003
9.439920e-003
9.439919e-003
9.439919e-003
9.439920e-003
9.439920e-003
9.439920e-003
9.439920e-003
9.439920e-003
9.439921e-003
9.439921e-003
9.439921e-003
9.439921e-003
9.439922e-003
9.439922e-003
9.439922e-003
9.439922e-003
9.439922e-003
9.439922e-003
9.439922e-003
9.439922e-003
9.439922e-003
9.439923e-003
9.439923e-003
9.439923e-003
9.439923e-003
9.439923e-003
9.439923e-003
9.439923e-003
9.439923e-003
9.439923e-003
9.439923e-003
9.439923e-003
9.439923e-003
9.439923e-003
9.439923e-003
9.439923e-003
9.439922e-003
9.439922e-003
9.439922e-003
9.439922e-003
9.439922e-003
9.439922e-003
9.439922e-003
9.439922e-003
9.439921e-003
9.439921e-003
9.439921e-003
9.439921e-003
9.439921e-003
9.439921e-003
9.439920e-003
9.439920e-003
9.439920e-003
9.439920e-003
9.439920e-003
9.439920e-003
9.439920e-003
9.439920e-003
9.439920e-003
9.439920e-003
9.439920e-003
9.439920e-003
9.439921e-003
9.439920e-003
9.439920e-003
9.439920e-003
9.439920e-003
9.439920e-003
9.439920e-003
9.439920e-003
9.439920e-003
9.439920e-003
9.439920e-003
9.439920e-003
9.439920e-003
9.439920e-003
9.439920e-003
9.439920e-003
9.439920e-003
9.439920e-003
9.439920e-003
9.439920e-003
9.439920e-003
9.439920e-003
9.439920e-003
9.439920e-003
9.439920e-003
9.439920e-003
9.439920e-003
9.439920e-003
9.439920e-003
9.439920e-003
9.439920e-003
9.439920e-003
9.439920e-003
9.439920e-003
9.439920e-003
9.439920e-003
9.439920e-003
9.439920e-003
9.439920e-003
9.439920e-003
9.439920e-003
9.439920e-003
9.439920e-003
9.439920e-003
9.439920e-003
9.439920e-003
9.439921e-003
9.439921e-003
9.439921e-003
9.439921e-003
9.439921e-003
9.439921e-003
9.439922e-003
9.439922e-003
9.439922e-003
9.439923e-003
9.439923e-003
9.439923e-003
9.439923e-003
9.439924e-003
9.439924e-003
9.439924e-003
9.439924e-003
9.439924e-003
9.439925e-003
9.439925e-003
9.439925e-003
9.439925e-003
9.439925e-003
9.439925e-003
9.439925e-003
9.439924e-003
9.439924e-003
9.439924e-003
9.439924e-003
9.439923e-003
9.439923e-003
9.439923e-003
9.439923e-003
9.439922e-003
9.439922e-003
9.439922e-003
9.439921e-003
9.439921e-003
9.439921e-003
9.439921e-003
9.439921e-003
9.439920e-003
9.439920e-003
9.439920e-003
9.439920e-003
9.439920e-003
9.439920e-003
9.439920e-003
9.439920e-003
9.439920e-003
9.439920e-003
9.439920e-003
9.439920e-003
9.439920e-003
9.439920e-003
9.439920e-003
9.439920e-003
9.439920e-003
9.439920e-003
9.439920e-003
9.439920e-003
9.439920e-003
9.439920e-003
9.439920e-003
9.439920e-003
9.439920e-003
9.439920e-003
9.439920e-003
9.439920e-003
9.439920e-003
9.439920e-003
9.439920e-003
9.439920e-003
9.439920e-003
9.439920e-003
9.439920e-003
9.439919e-003
9.439919e-003
9.439920e-003
9.439920e-003
9.439921e-003
9.439921e-003
9.439921e-003
9.439920e-003
9.439920e-003
9.439919e-003
9.439919e-003
9.439919e-003
9.439920e-003
9.439920e-003
9.439920e-003
9.439921e-003
9.439921e-003
9.439921e-003
9.439921e-003
9.439921e-003
9.439921e-003
9.439921e-003
9.439921e-003
9.439921e-003
9.439921e-003
9.439921e-003
9.439921e-003
9.439922e-003
9.439922e-003
9.439923e-003
9.439923e-003
9.439924e-003
9.439924e-003
9.439925e-003
9.439925e-003
9.439926e-003
9.439926e-003
9.439927e-003
9.439927e-003
9.439927e-003
9.439928e-003
9.439928e-003
9.439928e-003
9.439928e-003
9.439929e-003
9.439929e-003
9.439929e-003
9.439928e-003
9.439928e-003
9.439928e-003
9.439928e-003
9.439927e-003
9.439927e-003
9.439926e-003
9.439926e-003
9.439925e-003
9.439925e-003
9.439924e-003
9.439924e-003
9.439923e-003
9.439922e-003
9.439922e-003
9.439922e-003
9.439921e-003
9.439921e-003
9.439921e-003
9.439921e-003
9.439921e-003
9.439921e-003
9.439921e-003
9.439921e-003
9.439921e-003
9.439921e-003
9.439920e-003
9.439920e-003
9.439920e-003
9.439920e-003
9.439920e-003
9.439920e-003
9.439920e-003
9.439920e-003
9.439920e-003
9.439920e-003
9.439920e-003
9.439920e-003
9.439920e-003
9.439920e-003
9.439920e-003
9.439920e-003
9.439920e-003
9.439920e-003
9.439920e-003
9.439920e-003
9.439920e-003
9.439920e-003
9.439920e-003
9.439920e-003
9.439920e-003
9.439920e-003
9.439920e-003
9.439920e-003
9.439919e-003
9.439920e-003
9.439920e-003
9.439921e-003
9.439921e-003
9.439921e-003
9.439920e-003
9.439920e-003
9.439919e-003
9.439920e-003
9.439920e-003
9.439920e-003
9.439920e-003
9.439920e-003
9.439920e-003
9.439921e-003
9.439921e-003
9.439921e-003
9.439921e-003
9.439921e-003
9.439922e-003
9.439922e-003
9.439922e-003
9.439923e-003
9.439923e-003
9.439924e-003
9.439925e-003
9.439926e-003
9.439926e-003
9.439927e-003
9.439928e-003
9.439929e-003
9.439930e-003
9.439930e-003
9.439931e-003
9.439932e-003
9.439932e-003
9.439933e-003
9.439933e-003
9.439934e-003
9.439934e-003
9.439934e-003
9.439935e-003
9.439935e-003
9.439935e-003
9.439935e-003
9.439934e-003
9.439934e-003
9.439934e-003
9.439933e-003
9.439933e-003
9.439932e-003
9.439932e-003
9.439931e-003
9.439930e-003
9.439929e-003
9.439928e-003
9.439928e-003
9.439927e-003
9.439926e-003
9.439925e-003
9.439924e-003
9.439923e-003
9.439923e-003
9.439922e-003
9.439922e-003
9.439921e-003
9.439921e-003
9.439921e-003
9.439921e-003
9.439921e-003
9.439920e-003
9.439920e-003
9.439920e-003
9.439920e-003
9.439920e-003
9.439920e-003
9.439920e-003
9.439920e-003
9.439920e-003
9.439920e-003
9.439920e-003
9.439920e-003
9.439920e-003
9.439920e-003
9.439920e-003
9.439920e-003
9.439920e-003
9.439920e-003
9.439920e-003
9.439920e-003
9.439920e-003
9.439920e-003
9.439920e-003
9.439920e-003
9.439920e-003
9.439920e-003
9.439920e-003
9.439920e-003
9.439920e-003
9.439920e-003
9.439920e-003
9.439920e-003
9.439920e-003
9.439920e-003
9.439920e-003
9.439920e-003
9.439920e-003
9.439920e-003
9.439920e-003
9.439921e-003
9.439921e-003
9.439920e-003
9.439920e-003
9.439920e-003
9.439920e-003
9.439921e-003
9.439921e-003
9.439922e-003
9.439922e-003
9.439923e-003
9.439924e-003
9.439925e-003
9.439926e-003
9.439928e-003
9.439929e-003
9.439930e-003
9.439931e-003
9.439933e-003
9.439934e-003
9.439935e-003
9.439936e-003
9.439937e-003
9.439938e-003
9.439939e-003
9.439940e-003
9.439940e-003
9.439941e-003
9.439941e-003
9.439942e-003
9.439942e-003
9.439942e-003
9.439942e-003
9.439942e-003
9.439942e-003
9.439942e-003
9.439942e-003
9.439942e-003
9.439941e-003
9.439941e-003
9.439940e-003
9.439939e-003
9.439939e-003
9.439938e-003
9.439937e-003
9.439936e-003
9.439935e-003
9.439934e-003
9.439932e-003
9.439931e-003
9.439930e-003
9.439928e-003
9.439927e-003
9.439926e-003
9.439925e-003
9.439924e-003
9.439923e-003
9.439922e-003
9.439921e-003
9.439921e-003
9.439920e-003
9.439920e-003
9.439920e-003
9.439920e-003
9.439920e-003
9.439920e-003
9.439920e-003
9.439920e-003
9.439920e-003
9.439920e-003
9.439920e-003
9.439920e-003
9.439920e-003
9.439920e-003
9.439920e-003
9.439920e-003
9.439920e-003
9.439920e-003
9.439920e-003
9.439920e-003
9.439920e-003
9.439920e-003
9.439920e-003
9.439920e-003
9.439920e-003
9.439920e-003
9.439919e-003
9.439920e-003
9.439920e-003
9.439921e-003
9.439921e-003
9.439920e-003
9.439920e-003
9.439919e-003
9.439919e-003
9.439920e-003
9.439920e-003
9.439920e-003
9.439920e-003
9.439921e-003
9.439921e-003
9.439921e-003
9.439921e-003
9.439921e-003
9.439921e-003
9.439921e-003
9.439922e-003
9.439923e-003
9.439924e-003
9.439925e-003
9.439926e-003
9.439928e-003
9.439929e-003
9.439931e-003
9.439933e-003
9.439935e-003
9.439936e-003
9.439938e-003
9.439940e-003
9.439941e-003
9.439942e-003
9.439944e-003
9.439945e-003
9.439945e-003
9.439946e-003
9.439946e-003
9.439947e-003
9.439947e-003
9.439947e-003
9.439947e-003
9.439947e-003
9.439947e-003
9.439946e-003
9.439946e-003
9.439946e-003
9.439946e-003
9.439946e-003
9.439945e-003
9.439945e-003
9.439945e-003
9.439945e-003
9.439944e-003
9.439944e-003
9.439944e-003
9.439943e-003
9.439942e-003
9.439941e-003
9.439940e-003
9.439939e-003
9.439937e-003
9.439936e-003
9.439934e-003
9.439932e-003
9.439930e-003
9.439929e-003
9.439927e-003
9.439925e-003
9.439924e-003
9.439923e-003
9.439922e-003
9.439921e-003
9.439921e-003
9.439920e-003
9.439920e-003
9.439920e-003
9.439921e-003
9.439920e-003
9.439920e-003
9.439920e-003
9.439920e-003
9.439920e-003
9.439920e-003
9.439920e-003
9.439920e-003
9.439920e-003
9.439920e-003
9.439920e-003
9.439920e-003
9.439920e-003
9.439920e-003
9.439920e-003
9.439920e-003
9.439920e-003
9.439921e-003
9.439920e-003
9.439920e-003
9.439919e-003
9.439920e-003
9.439920e-003
9.439921e-003
9.439921e-003
9.439920e-003
9.439920e-003
9.439919e-003
9.439919e-003
9.439920e-003
9.439920e-003
9.439920e-003
9.439920e-003
9.439921e-003
9.439921e-003
9.439921e-003
9.439921e-003
9.439922e-003
9.439922e-003
9.439923e-003
9.439925e-003
9.439926e-003
9.439928e-003
9.439929e-003
9.439931e-003
9.439933e-003
9.439936e-003
9.439938e-003
9.439940e-003
9.439942e-003
9.439943e-003
9.439945e-003
9.439946e-003
9.439946e-003
9.439946e-003
9.439946e-003
9.439946e-003
9.439945e-003
9.439943e-003
9.439942e-003
9.439940e-003
9.439938e-003
9.439936e-003
9.439934e-003
9.439932e-003
9.439931e-003
9.439929e-003
9.439928e-003
9.439927e-003
9.439927e-003
9.439927e-003
9.439928e-003
9.439929e-003
9.439930e-003
9.439932e-003
9.439934e-003
9.439936e-003
9.439938e-003
9.439939e-003
9.439941e-003
9.439942e-003
9.439942e-003
9.439942e-003
9.439942e-003
9.439941e-003
9.439940e-003
9.439938e-003
9.439936e-003
9.439934e-003
9.439932e-003
9.439930e-003
9.439928e-003
9.439926e-003
9.439925e-003
9.439923e-003
9.439922e-003
9.439922e-003
9.439921e-003
9.439921e-003
9.439920e-003
9.439920e-003
9.439920e-003
9.439920e-003
9.439920e-003
9.439920e-003
9.439920e-003
9.439920e-003
9.439920e-003
9.439920e-003
9.439920e-003
9.439920e-003
9.439920e-003
9.439920e-003
9.439920e-003
9.439920e-003
9.439920e-003
9.439920e-003
9.439920e-003
9.439920e-003
9.439920e-003
9.439920e-003
9.439920e-003
9.439920e-003
9.439920e-003
9.439920e-003
9.439920e-003
9.439920e-003
9.439920e-003
9.439920e-003
9.439920e-003
9.439920e-003
9.439920e-003
9.439920e-003
9.439920e-003
9.439920e-003
9.439921e-003
9.439922e-003
9.439923e-003
9.439925e-003
9.439927e-003
9.439929e-003
9.439931e-003
9.439934e-003
9.439936e-003
9.439938e-003
9.439941e-003
9.439943e-003
9.439945e-003
9.439946e-003
9.439946e-003
9.439945e-003
9.439944e-003
9.439941e-003
9.439937e-003
9.439932e-003
9.439926e-003
9.439918e-003
9.439910e-003
9.439902e-003
9.439893e-003
9.439884e-003
9.439875e-003
9.439866e-003
9.439858e-003
9.439850e-003
9.439844e-003
9.439839e-003
9.439835e-003
9.439833e-003
9.439833e-003
9.439834e-003
9.439838e-003
9.439843e-003
9.439850e-003
9.439858e-003
9.439867e-003
9.439877e-003
9.439888e-003
9.439898e-003
9.439908e-003
9.439917e-003
9.439925e-003
9.439931e-003
9.439936e-003
9.439940e-003
9.439941e-003
9.439942e-003
9.439941e-003
9.439940e-003
9.439938e-003
9.439935e-003
9.439933e-003
9.439931e-003
9.439928e-003
9.439927e-003
9.439925e-003
9.439924e-003
9.439922e-003
9.439921e-003
9.439921e-003
9.439920e-003
9.439920e-003
9.439920e-003
9.439920e-003
9.439920e-003
9.439920e-003
9.439920e-003
9.439920e-003
9.439920e-003
9.439920e-003
9.439920e-003
9.439920e-003
9.439920e-003
9.439920e-003
9.439920e-003
9.439920e-003
9.439920e-003
9.439920e-003
9.439920e-003
9.439921e-003
9.439921e-003
9.439920e-003
9.439920e-003
9.439919e-003
9.439920e-003
9.439920e-003
9.439920e-003
9.439920e-003
9.439921e-003
9.439921e-003
9.439921e-003
9.439921e-003
9.439921e-003
9.439921e-003
9.439921e-003
9.439923e-003
9.439924e-003
9.439927e-003
9.439929e-003
9.439931e-003
9.439934e-003
9.439937e-003
9.439941e-003
9.439943e-003
9.439946e-003
9.439947e-003
9.439947e-003
9.439945e-003
9.439941e-003
9.439934e-003
9.439924e-003
9.439910e-003
9.439894e-003
9.439875e-003
9.439852e-003
9.439827e-003
9.439800e-003
9.439771e-003
9.439741e-003
9.439711e-003
9.439681e-003
9.439652e-003
9.439624e-003
9.439599e-003
9.439576e-003
9.439558e-003
9.439543e-003
9.439533e-003
9.439528e-003
9.439528e-003
9.439534e-003
9.439545e-003
9.439562e-003
9.439584e-003
9.439610e-003
9.439640e-003
9.439673e-003
9.439708e-003
9.439743e-003
9.439778e-003
9.439811e-003
9.439841e-003
9.439868e-003
9.439891e-003
9.439909e-003
9.439923e-003
9.439932e-003
9.439938e-003
9.439941e-003
9.439942e-003
9.439941e-003
9.439939e-003
9.439936e-003
9.439933e-003
9.439931e-003
9.439928e-003
9.439926e-003
9.439924e-003
9.439923e-003
9.439922e-003
9.439921e-003
9.439920e-003
9.439920e-003
9.439920e-003
9.439920e-003
9.439920e-003
9.439920e-003
9.439920e-003
9.439920e-003
9.439920e-003
9.439920e-003
9.439920e-003
9.439920e-003
9.439920e-003
9.439920e-003
9.439920e-003
9.439920e-003
9.439919e-003
9.439920e-003
9.439921e-003
9.439921e-003
9.439920e-003
9.439920e-003
9.439919e-003
9.439919e-003
9.439920e-003
9.439920e-003
9.439921e-003
9.439921e-003
9.439920e-003
9.439921e-003
9.439921e-003
9.439922e-003
9.439923e-003
9.439924e-003
9.439926e-003
9.439928e-003
9.439931e-003
9.439934e-003
9.439938e-003
9.439941e-003
9.439944e-003
9.439947e-003
9.439948e-003
9.439946e-003
9.439940e-003
9.439930e-003
9.439914e-003
9.439891e-003
9.439860e-003
9.439822e-003
9.439775e-003
9.439720e-003
9.439658e-003
9.439588e-003
9.439513e-003
9.439434e-003
9.439351e-003
9.439267e-003
9.439183e-003
9.439100e-003
9.439021e-003
9.438947e-003
9.438880e-003
9.438821e-003
9.438771e-003
9.438733e-003
9.438708e-003
9.438695e-003
9.438697e-003
9.438714e-003
9.438745e-003
9.438791e-003
9.438850e-003
9.438922e-003
9.439004e-003
9.439095e-003
9.439191e-003
9.439291e-003
9.439389e-003
9.439485e-003
9.439575e-003
9.439656e-003
9.439728e-003
9.439788e-003
9.439838e-003
9.439876e-003
9.439904e-003
9.439923e-003
9.439934e-003
9.439940e-003
9.439942e-003
9.439941e-003
9.439939e-003
9.439936e-003
9.439933e-003
9.439930e-003
9.439927e-003
9.439925e-003
9.439923e-003
9.439922e-003
9.439921e-003
9.439921e-003
9.439920e-003
9.439920e-003
9.439920e-003
9.439920e-003
9.439920e-003
9.439920e-003
9.439920e-003
9.439920e-003
9.439920e-003
9.439920e-003
9.439920e-003
9.439920e-003
9.439920e-003
9.439920e-003
9.439919e-003
9.439920e-003
9.439920e-003
9.439921e-003
9.439920e-003
9.439920e-003
9.439920e-003
9.439920e-003
9.439920e-003
9.439920e-003
9.439920e-003
9.439920e-003
9.439920e-003
9.439921e-003
9.439922e-003
9.439924e-003
9.439926e-003
9.439928e-003
9.439931e-003
9.439934e-003
9.439938e-003
9.439942e-003
9.439945e-003
9.439948e-003
9.439948e-003
9.439944e-003
9.439935e-003
9.439917e-003
9.439888e-003
9.439846e-003
9.439788e-003
9.439713e-003
9.439619e-003
9.439505e-003
9.439371e-003
9.439219e-003
9.439049e-003
9.438865e-003
9.438668e-003
9.438463e-003
9.438252e-003
9.438039e-003
9.437829e-003
9.437625e-003
9.437431e-003
9.437250e-003
9.437087e-003
9.436945e-003
9.436827e-003
9.436736e-003
9.436676e-003
9.436647e-003
9.436654e-003
9.436695e-003
9.436773e-003
9.436885e-003
9.437031e-003
9.437208e-003
9.437411e-003
9.437636e-003
9.437877e-003
9.438126e-003
9.438377e-003
9.438623e-003
9.438857e-003
9.439072e-003
9.439266e-003
9.439433e-003
9.439573e-003
9.439687e-003
9.439775e-003
9.439840e-003
9.439885e-003
9.439914e-003
9.439931e-003
9.439940e-003
9.439942e-003
9.439941e-003
9.439939e-003
9.439935e-003
9.439932e-003
9.439929e-003
9.439926e-003
9.439925e-003
9.439923e-003
9.439922e-003
9.439921e-003
9.439920e-003
9.439920e-003
9.439920e-003
9.439920e-003
9.439920e-003
9.439920e-003
9.439920e-003
9.439920e-003
9.439920e-003
9.439920e-003
9.439920e-003
9.439920e-003
9.439920e-003
9.439920e-003
9.439920e-003
9.439920e-003
9.439920e-003
9.439920e-003
9.439920e-003
9.439920e-003
9.439920e-003
9.439920e-003
9.439920e-003
9.439920e-003
9.439920e-003
9.439921e-003
9.439922e-003
9.439924e-003
9.439926e-003
9.439929e-003
9.439933e-003
9.439937e-003
9.439941e-003
9.439946e-003
9.439949e-003
9.439950e-003
9.439945e-003
9.439933e-003
9.439908e-003
9.439866e-003
9.439801e-003
9.439709e-003
9.439583e-003
9.439419e-003
9.439213e-003
9.438963e-003
9.438668e-003
9.438329e-003
9.437948e-003
9.437531e-003
9.437083e-003
9.436611e-003
9.436123e-003
9.435627e-003
9.435131e-003
9.434645e-003
9.434175e-003
9.433732e-003
9.433322e-003
9.432953e-003
9.432633e-003
9.432369e-003
9.432168e-003
9.432034e-003
9.431974e-003
9.431990e-003
9.432086e-003
9.432263e-003
9.432519e-003
9.432852e-003
9.433255e-003
9.433721e-003
9.434239e-003
9.434796e-003
9.435377e-003
9.435966e-003
9.436549e-003
9.437108e-003
9.437630e-003
9.438105e-003
9.438523e-003
9.438879e-003
9.439174e-003
9.439409e-003
9.439590e-003
9.439722e-003
9.439814e-003
9.439875e-003
9.439912e-003
9.439932e-003
9.439941e-003
9.439943e-003
9.439941e-003
9.439937e-003
9.439934e-003
9.439930e-003
9.439927e-003
9.439925e-003
9.439923e-003
9.439922e-003
9.439921e-003
9.439920e-003
9.439920e-003
9.439920e-003
9.439920e-003
9.439920e-003
9.439920e-003
9.439920e-003
9.439920e-003
9.439920e-003
9.439920e-003
9.439920e-003
9.439920e-003
9.439921e-003
9.439920e-003
9.439919e-003
9.439919e-003
9.439920e-003
9.439920e-003
9.439921e-003
9.439921e-003
9.439920e-003
9.439920e-003
9.439921e-003
9.439922e-003
9.439923e-003
9.439924e-003
9.439927e-003
9.439930e-003
9.439934e-003
9.439939e-003
9.439944e-003
9.439949e-003
9.439951e-003
9.439948e-003
9.439936e-003
9.439908e-003
9.439857e-003
9.439773e-003
9.439647e-003
9.439466e-003
9.439218e-003
9.438892e-003
9.438478e-003
9.437971e-003
9.437366e-003
9.436663e-003
9.435867e-003
9.434986e-003
9.434032e-003
9.433018e-003
9.431962e-003
9.430879e-003
9.429789e-003
9.428708e-003
9.427655e-003
9.426647e-003
9.425700e-003
9.424830e-003
9.424051e-003
9.423379e-003
9.422827e-003
9.422408e-003
9.422132e-003
9.422010e-003
9.422049e-003
9.422256e-003
9.422632e-003
9.423176e-003
9.423882e-003
9.424741e-003
9.425737e-003
9.426849e-003
9.428053e-003
9.429318e-003
9.430612e-003
9.431901e-003
9.433151e-003
9.434332e-003
9.435416e-003
9.436384e-003
9.437223e-003
9.437927e-003
9.438498e-003
9.438947e-003
9.439285e-003
9.439531e-003
9.439701e-003
9.439812e-003
9.439880e-003
9.439918e-003
9.439937e-003
9.439943e-003
9.439942e-003
9.439939e-003
9.439935e-003
9.439931e-003
9.439928e-003
9.439925e-003
9.439923e-003
9.439922e-003
9.439921e-003
9.439920e-003
9.439920e-003
9.439920e-003
9.439920e-003
9.439920e-003
9.439920e-003
9.439920e-003
9.439920e-003
9.439920e-003
9.439920e-003
9.439920e-003
9.439922e-003
9.439920e-003
9.439919e-003
9.439919e-003
9.439920e-003
9.439920e-003
9.439921e-003
9.439921e-003
9.439920e-003
9.439921e-003
9.439922e-003
9.439923e-003
9.439926e-003
9.439928e-003
9.439931e-003
9.439936e-003
9.439941e-003
9.439947e-003
9.439951e-003
9.439951e-003
9.439942e-003
9.439917e-003
9.439866e-003
9.439775e-003
9.439626e-003
9.439400e-003
9.439074e-003
9.438621e-003
9.438019e-003
9.437246e-003
9.436283e-003
9.435120e-003
9.433755e-003
9.432191e-003
9.430444e-003
9.428535e-003
9.426492e-003
9.424347e-003
9.422135e-003
9.419894e-003
9.417659e-003
9.415466e-003
9.413348e-003
9.411338e-003
9.409465e-003
9.407757e-003
9.406240e-003
9.404940e-003
9.403878e-003
9.403077e-003
9.402557e-003
9.402333e-003
9.402421e-003
9.402830e-003
9.403567e-003
9.404632e-003
9.406016e-003
9.407705e-003
9.409673e-003
9.411885e-003
9.414298e-003
9.416857e-003
9.419500e-003
9.422163e-003
9.424775e-003
9.427272e-003
9.429594e-003
9.431695e-003
9.433539e-003
9.435111e-003
9.436407e-003
9.437441e-003
9.438237e-003
9.438828e-003
9.439248e-003
9.439535e-003
9.439720e-003
9.439833e-003
9.439897e-003
9.439928e-003
9.439941e-003
9.439943e-003
9.439941e-003
9.439936e-003
9.439932e-003
9.439928e-003
9.439926e-003
9.439924e-003
9.439922e-003
9.439921e-003
9.439920e-003
9.439920e-003
9.439920e-003
9.439920e-003
9.439920e-003
9.439920e-003
9.439920e-003
9.439920e-003
9.439920e-003
9.439920e-003
9.439921e-003
9.439920e-003
9.439919e-003
9.439919e-003
9.439920e-003
9.439921e-003
9.439921e-003
9.439920e-003
9.439920e-003
9.439921e-003
9.439923e-003
9.439926e-003
9.439929e-003
9.439933e-003
9.439938e-003
9.439943e-003
9.439949e-003
9.439953e-003
9.439950e-003
9.439933e-003
9.439890e-003
9.439806e-003
9.439658e-003
9.439415e-003
9.439041e-003
9.438493e-003
9.437723e-003
9.436681e-003
9.435320e-003
9.433603e-003
9.431500e-003
9.429001e-003
9.426109e-003
9.422850e-003
9.419264e-003
9.415404e-003
9.411337e-003
9.407132e-003
9.402862e-003
9.398600e-003
9.394412e-003
9.390362e-003
9.386506e-003
9.382897e-003
9.379577e-003
9.376589e-003
9.373969e-003
9.371748e-003
9.369958e-003
9.368626e-003
9.367778e-003
9.367437e-003
9.367624e-003
9.368356e-003
9.369645e-003
9.371496e-003
9.373905e-003
9.376859e-003
9.380330e-003
9.384273e-003
9.388628e-003
9.393313e-003
9.398230e-003
9.403264e-003
9.408288e-003
9.413175e-003
9.417801e-003
9.422057e-003
9.425858e-003
9.429151e-003
9.431912e-003
9.434151e-003
9.435905e-003
9.437230e-003
9.438193e-003
9.438866e-003
9.439316e-003
9.439602e-003
9.439774e-003
9.439870e-003
9.439918e-003
9.439938e-003
9.439944e-003
9.439942e-003
9.439937e-003
9.439932e-003
9.439929e-003
9.439926e-003
9.439924e-003
9.439922e-003
9.439921e-003
9.439920e-003
9.439920e-003
9.439920e-003
9.439920e-003
9.439920e-003
9.439920e-003
9.439920e-003
9.439920e-003
9.439920e-003
9.439920e-003
9.439920e-003
9.439920e-003
9.439920e-003
9.439920e-003
9.439921e-003
9.439921e-003
9.439921e-003
9.439921e-003
9.439923e-003
9.439926e-003
9.439929e-003
9.439934e-003
9.439939e-003
9.439945e-003
9.439951e-003
9.439954e-003
9.439948e-003
9.439921e-003
9.439857e-003
9.439732e-003
9.439509e-003
9.439140e-003
9.438563e-003
9.437700e-003
9.436466e-003
9.434767e-003
9.432513e-003
9.429622e-003
9.426036e-003
9.421725e-003
9.416695e-003
9.410993e-003
9.404699e-003
9.397925e-003
9.390806e-003
9.383484e-003
9.376107e-003
9.368813e-003
9.361728e-003
9.354960e-003
9.348600e-003
9.342721e-003
9.337378e-003
9.332612e-003
9.328449e-003
9.324910e-003
9.322005e-003
9.319744e-003
9.318132e-003
9.317177e-003
9.316888e-003
9.317278e-003
9.318363e-003
9.320166e-003
9.322711e-003
9.326022e-003
9.330123e-003
9.335029e-003
9.340735e-003
9.347213e-003
9.354399e-003
9.362187e-003
9.370429e-003
9.378930e-003
9.387467e-003
9.395797e-003
9.403685e-003
9.410919e-003
9.417338e-003
9.422842e-003
9.427397e-003
9.431035e-003
9.433833e-003
9.435905e-003
9.437382e-003
9.438391e-003
9.439051e-003
9.439463e-003
9.439706e-003
9.439840e-003
9.439907e-003
9.439935e-003
9.439943e-003
9.439942e-003
9.439938e-003
9.439933e-003
9.439929e-003
9.439926e-003
9.439924e-003
9.439922e-003
9.439921e-003
9.439920e-003
9.439920e-003
9.439920e-003
9.439920e-003
9.439920e-003
9.439920e-003
9.439920e-003
9.439920e-003
9.439919e-003
9.439920e-003
9.439921e-003
9.439921e-003
9.439921e-003
9.439920e-003
9.439921e-003
9.439922e-003
9.439923e-003
9.439926e-003
9.439929e-003
9.439934e-003
9.439940e-003
9.439947e-003
9.439953e-003
9.439955e-003
9.439944e-003
9.439908e-003
9.439821e-003
9.439649e-003
9.439337e-003
9.438813e-003
9.437975e-003
9.436698e-003
9.434835e-003
9.432222e-003
9.428692e-003
9.424098e-003
9.418327e-003
9.411327e-003
9.403123e-003
9.393823e-003
9.383615e-003
9.372755e-003
9.361542e-003
9.350294e-003
9.339318e-003
9.328889e-003
9.319237e-003
9.310533e-003
9.302894e-003
9.296379e-003
9.290998e-003
9.286718e-003
9.283466e-003
9.281144e-003
9.279632e-003
9.278799e-003
9.278513e-003
9.278646e-003
9.279084e-003
9.279735e-003
9.280539e-003
9.281472e-003
9.282560e-003
9.283878e-003
9.285559e-003
9.287785e-003
9.290777e-003
9.294772e-003
9.299996e-003
9.306626e-003
9.314752e-003
9.324349e-003
9.335251e-003
9.347160e-003
9.359655e-003
9.372247e-003
9.384426e-003
9.395731e-003
9.405801e-003
9.414408e-003
9.421470e-003
9.427032e-003
9.431240e-003
9.434297e-003
9.436428e-003
9.437852e-003
9.438763e-003
9.439318e-003
9.439638e-003
9.439811e-003
9.439896e-003
9.439932e-003
9.439943e-003
9.439943e-003
9.439938e-003
9.439933e-003
9.439929e-003
9.439925e-003
9.439923e-003
9.439922e-003
9.439921e-003
9.439920e-003
9.439920e-003
9.439920e-003
9.439920e-003
9.439920e-003
9.439920e-003
9.439920e-003
9.439918e-003
9.439920e-003
9.439921e-003
9.439921e-003
9.439921e-003
9.439920e-003
9.439921e-003
9.439923e-003
9.439926e-003
9.439929e-003
9.439934e-003
9.439940e-003
9.439947e-003
9.439954e-003
9.439955e-003
9.439942e-003
9.439896e-003
9.439786e-003
9.439566e-003
9.439159e-003
9.438458e-003
9.437314e-003
9.435533e-003
9.432877e-003
9.429076e-003
9.423852e-003
9.416950e-003
9.408190e-003
9.397514e-003
9.385029e-003
9.371037e-003
9.356029e-003
9.340655e-003
9.325663e-003
9.311819e-003
9.299840e-003
9.290320e-003
9.283689e-003
9.280198e-003
9.279912e-003
9.282729e-003
9.288404e-003
9.296566e-003
9.306748e-003
9.318400e-003
9.330919e-003
9.343666e-003
9.355991e-003
9.367252e-003
9.376842e-003
9.384211e-003
9.388893e-003
9.390535e-003
9.388930e-003
9.384054e-003
9.376099e-003
9.365496e-003
9.352923e-003
9.339288e-003
9.325685e-003
9.313304e-003
9.303330e-003
9.296806e-003
9.294501e-003
9.296802e-003
9.303640e-003
9.314489e-003
9.328429e-003
9.344285e-003
9.360799e-003
9.376810e-003
9.391399e-003
9.403969e-003
9.414255e-003
9.422274e-003
9.428246e-003
9.432501e-003
9.435403e-003
9.437298e-003
9.438481e-003
9.439184e-003
9.439580e-003
9.439789e-003
9.439889e-003
9.439931e-003
9.439943e-003
9.439943e-003
9.439938e-003
9.439932e-003
9.439928e-003
9.439925e-003
9.439923e-003
9.439922e-003
9.439921e-003
9.439920e-003
9.439920e-003
9.439920e-003
9.439920e-003
9.439920e-003
9.439920e-003
9.439919e-003
9.439920e-003
9.439921e-003
9.439921e-003
9.439921e-003
9.439921e-003
9.439922e-003
9.439925e-003
9.439929e-003
9.439934e-003
9.439940e-003
9.439947e-003
9.439954e-003
9.439956e-003
9.439941e-003
9.439888e-003
9.439760e-003
9.439496e-003
9.438997e-003
9.438116e-003
9.436642e-003
9.434294e-003
9.430714e-003
9.425484e-003
9.418165e-003
9.408361e-003
9.395820e-003
9.380551e-003
9.362942e-003
9.343837e-003
9.324559e-003
9.306832e-003
9.292633e-003
9.283975e-003
9.282685e-003
9.290203e-003
9.307448e-003
9.334757e-003
9.371899e-003
9.418138e-003
9.472322e-003
9.532978e-003
9.598386e-003
9.666648e-003
9.735737e-003
9.803543e-003
9.867925e-003
9.926755e-003
9.977969e-003
1.001961e-002
1.004991e-002
1.006731e-002
1.007059e-002
1.005894e-002
1.003208e-002
9.990366e-003
9.934913e-003
9.867640e-003
9.791285e-003
9.709325e-003
9.625796e-003
9.545010e-003
9.471184e-003
9.408029e-003
9.358331e-003
9.323621e-003
9.303995e-003
9.298139e-003
9.303589e-003
9.317168e-003
9.335513e-003
9.355569e-003
9.374943e-003
9.392065e-003
9.406155e-003
9.417069e-003
9.425081e-003
9.430679e-003
9.434414e-003
9.436794e-003
9.438242e-003
9.439081e-003
9.439540e-003
9.439776e-003
9.439886e-003
9.439931e-003