# vtk DataFile Version 3.0
vtk output
ASCII
DATASET STRUCTURED_POINTS
DIMENSIONS 100 100 1
SPACING 1 1 1
ORIGIN 0 0 0
POINT_DATA 10000
SCALARS SFBox_profile double
LOOKUP_TABLE default 
0.000000e+000
0.000000e+000
0.000000e+000
0.000000e+000
0.000000e+000
0.000000e+000
0.000000e+000
0.000000e+000
0.000000e+000
0.000000e+000
0.000000e+000
0.000000e+000
0.000000e+000
0.000000e+000
0.000000e+000
0.000000e+000
0.000000e+000
0.000000e+000
0.000000e+000
0.000000e+000
0.000000e+000
0.000000e+000
0.000000e+000
0.000000e+000
0.000000e+000
0.000000e+000
0.000000e+000
0.000000e+000
0.000000e+000
0.000000e+000
0.000000e+000
0.000000e+000
0.000000e+000
0.000000e+000
0.000000e+000
0.000000e+000
0.000000e+000
0.000000e+000
0.000000e+000
0.000000e+000
0.000000e+000
0.000000e+000
0.000000e+000
0.000000e+000
0.000000e+000
0.000000e+000
0.000000e+000
0.000000e+000
0.000000e+000
0.000000e+000
0.000000e+000
0.000000e+000
0.000000e+000
0.000000e+000
0.000000e+000
0.000000e+000
0.000000e+000
0.000000e+000
0.000000e+000
0.000000e+000
0.000000e+000
0.000000e+000
0.000000e+000
0.000000e+000
0.000000e+000
0.000000e+000
0.000000e+000
0.000000e+000
0.000000e+000
0.000000e+000
0.000000e+000
0.000000e+000
0.000000e+000
0.000000e+000
0.000000e+000
0.000000e+000
0.000000e+000
0.000000e+000
0.000000e+000
0.000000e+000
0.000000e+000
0.000000e+000
0.000000e+000
0.000000e+000
0.000000e+000
0.000000e+000
0.000000e+000
0.000000e+000
0.000000e+000
0.000000e+000
0.000000e+000
0.000000e+000
0.000000e+000
0.000000e+000
0.000000e+000
0.000000e+000
0.000000e+000
0.000000e+000
0.000000e+000
0.000000e+000
-1.708851e-007
-1.144994e-007
-3.054789e-008
4.021111e-008
6.830573e-008
5.071952e-008
9.055222e-009
-2.691299e-008
-3.836012e-008
-2.633279e-008
-5.915966e-009
7.836029e-009
1.049062e-008
8.023439e-009
8.144811e-009
1.207118e-008
1.396620e-008
7.637594e-009
-6.390608e-009
-2.015255e-008
-2.450215e-008
-1.669432e-008
-2.565652e-009
8.513317e-009
1.133723e-008
8.385612e-009
6.249955e-009
8.640737e-009
1.279662e-008
1.270870e-008
5.741786e-009
-4.250292e-009
-1.062779e-008
-1.062701e-008
-7.898570e-009
-8.205915e-009
-1.299479e-008
-1.790074e-008
-1.778959e-008
-1.261610e-008
-7.483565e-009
-6.898005e-009
-9.829358e-009
-1.120366e-008
-7.982242e-009
-2.706629e-009
-4.393793e-010
-2.802392e-009
-6.163469e-009
-6.045859e-009
-2.467237e-009
1.245950e-010
-1.810694e-009
-6.673529e-009
-9.612675e-009
-8.257216e-009
-5.476468e-009
-5.907382e-009
-1.036675e-008
-1.473977e-008
-1.465096e-008
-1.045355e-008
-6.736203e-009
-6.948328e-009
-9.379175e-009
-9.116140e-009
-3.726187e-009
3.806208e-009
8.180217e-009
7.402788e-009
4.672095e-009
4.510989e-009
7.507870e-009
9.479685e-009
5.996076e-009
-2.567692e-009
-1.079790e-008
-1.309874e-008
-8.715537e-009
-2.002314e-009
2.063339e-009
2.446858e-009
2.228492e-009
4.498988e-009
8.372055e-009
9.316050e-009
3.693272e-009
-6.811855e-009
-1.532310e-008
-1.486962e-008
-4.335849e-009
9.839824e-009
1.794011e-008
1.408271e-008
7.167440e-010
-1.295650e-008
-1.748940e-008
-9.859463e-009
4.462456e-009
1.542101e-008
-3.620977e-008
-2.297066e-008
-3.857781e-009
1.087451e-008
1.432264e-008
7.005038e-009
-3.961999e-009
-1.009299e-008
-7.484751e-009
8.473475e-010
7.879059e-009
8.274498e-009
2.303336e-009
-4.938875e-009
-7.983124e-009
-5.243675e-009
2.721787e-010
3.984464e-009
3.659711e-009
9.280072e-010
-6.732709e-010
7.796800e-010
3.719026e-009
4.590664e-009
1.403384e-009
-4.046006e-009
-7.584064e-009
-6.555014e-009
-2.402505e-009
7.976785e-010
5.182151e-010
-1.648080e-009
-1.841637e-009
1.693704e-009
6.509988e-009
8.543855e-009
6.588197e-009
3.612235e-009
3.378394e-009
6.178941e-009
8.584057e-009
7.492580e-009
3.775136e-009
1.263709e-009
2.290972e-009
5.030641e-009
5.746566e-009
3.249424e-009
2.739738e-010
1.851736e-010
2.976213e-009
5.319732e-009
4.565294e-009
1.885830e-009
8.392004e-010
3.097833e-009
6.439826e-009
7.358297e-009
5.160629e-009
2.715310e-009
3.012934e-009
5.623858e-009
7.188549e-009
5.316553e-009
1.339455e-009
-1.220990e-009
-6.317685e-010
1.198255e-009
1.028677e-009
-1.944343e-009
-5.111266e-009
-5.280356e-009
-2.120594e-009
1.515382e-009
2.605610e-009
9.799877e-010
-7.945417e-010
-3.458814e-010
1.963968e-009
3.491564e-009
2.147806e-009
-1.358258e-009
-4.092305e-009
-3.643156e-009
-3.615502e-010
2.966962e-009
3.602666e-009
1.181757e-009
-2.102993e-009
-3.468588e-009
-1.854289e-009
1.333031e-009
3.494752e-009
2.943409e-009
1.341318e-010
-2.809621e-009
-3.746834e-009
-2.043707e-009
1.068522e-009
3.425255e-009
1.245534e-007
8.517923e-008
2.588976e-008
-2.573367e-008
-4.930629e-008
-4.139134e-008
-1.441580e-008
1.312083e-008
2.782035e-008
2.692897e-008
1.616681e-008
3.280299e-009
-7.123313e-009
-1.423017e-008
-1.829762e-008
-1.830226e-008
-1.255406e-008
-1.378182e-009
1.136679e-008
2.005075e-008
2.104572e-008
1.508760e-008
6.126550e-009
-2.016449e-009
-7.939149e-009
-1.212417e-008
-1.490645e-008
-1.554181e-008
-1.323606e-008
-8.518385e-009
-3.076390e-009
1.760037e-009
5.986917e-009
1.020666e-008
1.426321e-008
1.706742e-008
1.785782e-008
1.723249e-008
1.653526e-008
1.629327e-008
1.567803e-008
1.372004e-008
1.077550e-008
8.359937e-009
7.473263e-009
7.458009e-009
6.832498e-009
5.123548e-009
3.475004e-009
3.290015e-009
4.561321e-009
5.910715e-009
6.261777e-009
6.096923e-009
6.797514e-009
8.913024e-009
1.146266e-008
1.305738e-008
1.342237e-008
1.349438e-008
1.407012e-008
1.471600e-008
1.423532e-008
1.204686e-008
8.784199e-009
5.478314e-009
2.429209e-009
-8.456666e-010
-4.617098e-009
-8.212924e-009
-1.044991e-008
-1.065191e-008
-9.023306e-009
-6.069758e-009
-2.000743e-009
2.994619e-009
7.961933e-009
1.108418e-008
1.076582e-008
6.948377e-009
1.281456e-009
-4.061863e-009
-7.702448e-009
-9.244995e-009
-8.483485e-009
-4.962799e-009
1.218794e-009
8.152906e-009
1.218416e-008
1.007812e-008
1.897668e-009
-8.014412e-009
-1.337816e-008
-1.033508e-008
-5.617013e-010
9.483110e-009
1.293127e-008
7.407966e-009
-3.173213e-009
-1.133068e-008
1.840751e-007
1.229011e-007
3.235850e-008
-4.305120e-008
-7.196021e-008
-5.226727e-008
-8.126590e-009
2.859848e-008
3.880329e-008
2.486827e-008
3.535980e-009
-9.441413e-009
-1.026080e-008
-6.149400e-009
-5.590279e-009
-9.612804e-009
-1.182102e-008
-6.057469e-009
6.421239e-009
1.733740e-008
1.876061e-008
1.016769e-008
-1.455035e-009
-8.149463e-009
-7.625843e-009
-3.950934e-009
-2.447275e-009
-4.401744e-009
-6.623797e-009
-5.519919e-009
-9.879255e-010
3.728548e-009
5.533324e-009
4.382686e-009
2.799686e-009
2.969575e-009
4.650256e-009
5.837128e-009
5.090734e-009
2.951384e-009
1.166223e-009
8.215737e-010
1.401186e-009
1.579574e-009
7.154432e-010
-5.594075e-010
-1.154366e-009
-7.456374e-010
-7.854197e-011
-7.515580e-011
-7.718139e-010
-1.274579e-009
-7.896738e-010
4.256380e-010
1.300227e-009
1.168758e-009
6.042558e-010
8.372292e-010
2.316642e-009
4.044932e-009
4.565981e-009
3.605515e-009
2.476597e-009
2.632979e-009
3.896711e-009
4.441632e-009
2.752787e-009
-5.357567e-010
-3.096907e-009
-3.354561e-009
-2.249237e-009
-2.194922e-009
-4.171867e-009
-6.173266e-009
-5.000354e-009
2.201656e-010
6.532886e-009
9.523117e-009
7.364112e-009
2.432065e-009
-1.218923e-009
-1.922284e-009
-1.734524e-009
-3.594635e-009
-7.319692e-009
-8.886729e-009
-4.242748e-009
5.846210e-009
1.489190e-008
1.531807e-008
5.023323e-009
-9.887346e-009
-1.899455e-008
-1.533383e-008
-9.494261e-010
1.423255e-008
1.949152e-008
1.108667e-008
-5.018290e-009
-1.742515e-008
9.978149e-008
6.290817e-008
1.008793e-008
-2.999228e-008
-3.870410e-008
-1.832501e-008
1.118173e-008
2.700845e-008
1.935637e-008
-3.029715e-009
-2.124879e-008
-2.154876e-008
-5.388469e-009
1.328372e-008
2.039370e-008
1.286867e-008
-5.745239e-010
-8.575979e-009
-7.220706e-009
-2.037463e-009
-1.006987e-009
-6.064695e-009
-1.139494e-008
-9.703977e-009
1.554017e-010
1.179065e-008
1.721782e-008
1.404911e-008
6.954563e-009
2.427049e-009
2.457063e-009
3.363222e-009
4.457877e-010
-6.732544e-009
-1.388446e-008
-1.651284e-008
-1.442867e-008
-1.158056e-008
-1.164350e-008
-1.423548e-008
-1.571875e-008
-1.346931e-008
-8.823931e-009
-5.547936e-009
-5.683405e-009
-7.462128e-009
-7.534119e-009
-4.876523e-009
-1.918513e-009
-1.666771e-009
-4.205597e-009
-6.627673e-009
-6.458227e-009
-4.573194e-009
-4.182854e-009
-7.021682e-009
-1.117286e-008
-1.311748e-008
-1.170549e-008
-9.450540e-009
-9.570324e-009
-1.211616e-008
-1.368566e-008
-1.118192e-008
-5.415739e-009
-4.021533e-010
9.807852e-010
1.264128e-010
1.015790e-009
5.469616e-009
1.062228e-008
1.159857e-008
6.677334e-009
-6.146468e-010
-4.846965e-009
-4.016524e-009
-1.244600e-009
-1.061710e-009
-4.264267e-009
-6.876180e-009
-4.437088e-009
2.805756e-009
9.312674e-009
9.182861e-009
1.912774e-009
-6.672546e-009
-9.387347e-009
-4.030426e-009
4.670373e-009
9.194990e-009
5.680049e-009
-2.928249e-009
-9.502064e-009
-8.646130e-009
-9.283084e-010
7.771590e-009
1.091824e-008
6.191665e-009
-2.978122e-009
-1.004466e-008
-5.555954e-008
-4.218917e-008
-2.034212e-008
2.693645e-009
2.022406e-008
2.778648e-008
2.354553e-008
8.784992e-009
-1.122211e-008
-2.765338e-008
-3.162143e-008
-1.967291e-008
2.744459e-009
2.357210e-008
3.161188e-008
2.388339e-008
7.041920e-009
-8.282609e-009
-1.541494e-008
-1.523840e-008
-1.299407e-008
-1.201622e-008
-1.064385e-008
-5.030643e-009
5.451492e-009
1.610194e-008
2.053590e-008
1.655755e-008
8.280135e-009
2.199182e-009
1.087719e-009
1.869037e-009
-4.574410e-010
-7.063927e-009
-1.384084e-008
-1.575404e-008
-1.225256e-008
-7.818011e-009
-7.061396e-009
-9.785908e-009
-1.147481e-008
-8.602449e-009
-2.748993e-009
1.135357e-009
3.084392e-010
-2.739373e-009
-3.267021e-009
2.013102e-010
4.211916e-009
4.461718e-009
8.284513e-010
-2.527497e-009
-2.080777e-009
9.111233e-010
1.902130e-009
-1.562680e-009
-6.894683e-009
-9.399100e-009
-7.668279e-009
-5.131937e-009
-5.955743e-009
-1.005871e-008
-1.303791e-008
-1.110848e-008
-5.392730e-009
-6.568434e-010
4.906327e-011
-1.254686e-009
7.291608e-011
5.794625e-009
1.239659e-008
1.446508e-008
1.016156e-008
2.927040e-009
-2.235688e-009
-3.717345e-009
-4.193489e-009
-6.745638e-009
-1.066475e-008
-1.161670e-008
-6.114248e-009
4.311528e-009
1.354612e-008
1.563690e-008
9.466760e-009
-6.864748e-010
-8.738642e-009
-1.105419e-008
-7.996950e-009
-2.397258e-009
2.867930e-009
6.071669e-009
6.467075e-009
3.993588e-009
-4.128931e-010
-4.577378e-009
-5.953437e-009
-3.438712e-009
1.415916e-009
5.217764e-009
-1.588098e-007
-1.070755e-007
-3.086104e-008
3.255974e-008
5.810639e-008
4.505256e-008
1.248141e-008
-1.627906e-008
-2.794430e-008
-2.330633e-008
-1.123352e-008
9.133765e-011
7.540012e-009
1.152880e-008
1.249175e-008
9.720927e-009
3.206993e-009
-4.514409e-009
-9.341584e-009
-8.831177e-009
-4.329898e-009
3.622030e-010
2.507379e-009
2.487185e-009
2.389155e-009
2.985317e-009
2.741259e-009
6.005103e-011
-3.983779e-009
-5.987818e-009
-3.696207e-009
1.260239e-009
4.790568e-009
4.700072e-009
3.112376e-009
3.992842e-009
8.408523e-009
1.300996e-008
1.370374e-008
1.041125e-008
7.313474e-009
8.105331e-009
1.170181e-008
1.349130e-008
1.078743e-008
6.102557e-009
4.317083e-009
7.006363e-009
1.061073e-008
1.064110e-008
6.968175e-009
3.948052e-009
5.257317e-009
9.567439e-009
1.214592e-008
1.042096e-008
6.903385e-009
6.081030e-009
9.050052e-009
1.222457e-008
1.154775e-008
7.171819e-009
3.169131e-009
2.761124e-009
4.709908e-009
4.973654e-009
1.536390e-009
-3.209731e-009
-5.126143e-009
-2.830405e-009
1.027314e-009
2.867602e-009
1.910469e-009
4.194437e-010
5.787396e-010
1.846681e-009
1.753151e-009
-9.966883e-010
-4.750699e-009
-6.383969e-009
-4.272253e-009
3.868957e-010
4.933652e-009
7.413083e-009
7.285871e-009
4.617854e-009
-4.390749e-010
-6.795362e-009
-1.145583e-008
-1.058091e-008
-2.721643e-009
8.545895e-009
1.581923e-008
1.304904e-008
8.558577e-010
-1.281530e-008
-1.804907e-008
-1.054086e-008
4.671509e-009
1.663128e-008
-1.379390e-007
-8.555390e-008
-1.196801e-008
4.153366e-008
5.057402e-008
2.159538e-008
-1.622178e-008
-3.369278e-008
-2.161868e-008
5.989365e-009
2.588032e-008
2.427279e-008
5.585165e-009
-1.410458e-008
-2.144132e-008
-1.525300e-008
-4.227733e-009
2.985166e-009
5.064174e-009
6.546576e-009
1.074153e-008
1.525999e-008
1.466268e-008
6.739853e-009
-4.673830e-009
-1.320613e-008
-1.565390e-008
-1.380008e-008
-1.106576e-008
-8.456559e-009
-4.410536e-009
1.976818e-009
8.873015e-009
1.347275e-008
1.522587e-008
1.627317e-008
1.846117e-008
2.076987e-008
2.055267e-008
1.711917e-008
1.305645e-008
1.139168e-008
1.198385e-008
1.171008e-008
8.406379e-009
3.767950e-009
1.528402e-009
3.011365e-009
5.478757e-009
5.375534e-009
2.594940e-009
6.060507e-010
2.298987e-009
6.574525e-009
9.733155e-009
9.871020e-009
8.944369e-009
1.013932e-008
1.388534e-008
1.732000e-008
1.766582e-008
1.530461e-008
1.294776e-008
1.217111e-008
1.162555e-008
8.926226e-009
3.690224e-009
-1.971212e-009
-5.843700e-009
-7.737330e-009
-8.836429e-009
-9.439606e-009
-8.234954e-009
-4.131936e-009
1.728716e-009
6.497787e-009
8.232897e-009
7.500439e-009
6.055442e-009
4.334151e-009
1.071004e-009
-4.235792e-009
-9.059100e-009
-9.147087e-009
-2.850883e-009
5.983073e-009
1.030342e-008
5.992549e-009
-3.804411e-009
-1.070843e-008
-8.232460e-009
2.234145e-009
1.211805e-008
1.272358e-008
2.697057e-009
-1.049929e-008
-1.642715e-008
-1.005396e-008
4.120373e-009
1.547413e-008
-2.317618e-008
-4.541433e-009
1.788540e-008
2.560512e-008
1.078521e-008
-1.690291e-008
-3.656452e-008
-3.154774e-008
-2.739536e-009
3.090507e-008
4.586634e-008
3.163518e-008
-1.479959e-009
-3.067376e-008
-3.822958e-008
-2.383219e-008
-1.967470e-009
1.197093e-008
1.374196e-008
1.030500e-008
9.810214e-009
1.271092e-008
1.267711e-008
5.068951e-009
-6.912691e-009
-1.497936e-008
-1.398564e-008
-6.592615e-009
2.097926e-010
2.300737e-009
1.490677e-009
1.948290e-009
4.922974e-009
7.793222e-009
7.741270e-009
5.076404e-009
2.390155e-009
1.186569e-009
4.168904e-010
-1.575648e-009
-4.624753e-009
-7.028551e-009
-7.924661e-009
-8.413987e-009
-9.949651e-009
-1.224678e-008
-1.357637e-008
-1.306770e-008
-1.193806e-008
-1.198028e-008
-1.326007e-008
-1.401762e-008
-1.288983e-008
-1.057697e-008
-8.859288e-009
-8.325431e-009
-7.763282e-009
-5.892152e-009
-3.064236e-009
-7.290978e-010
4.979728e-010
1.504943e-009
3.223256e-009
5.106870e-009
5.714699e-009
4.663523e-009
3.233501e-009
2.619350e-009
2.089096e-009
-2.552965e-010
-4.689784e-009
-8.546925e-009
-8.476415e-009
-4.056792e-009
1.489410e-009
4.620323e-009
5.165783e-009
5.981083e-009
8.737722e-009
1.079011e-008
7.307425e-009
-2.975568e-009
-1.457897e-008
-1.882129e-008
-1.140978e-008
3.106250e-009
1.455811e-008
1.535807e-008
6.353625e-009
-4.606717e-009
-9.583456e-009
-6.582218e-009
8.020834e-011
4.411672e-009
3.722841e-009
-6.407125e-011
-2.990495e-009
-2.640666e-009
2.336775e-010
2.834897e-009
9.014581e-008
6.628281e-008
2.938937e-008
-5.662667e-009
-2.794608e-008
-3.393395e-008
-2.576914e-008
-8.280096e-009
1.193639e-008
2.646275e-008
2.751926e-008
1.335057e-008
-8.205850e-009
-2.329953e-008
-2.196215e-008
-6.331652e-009
1.080545e-008
1.670906e-008
9.153807e-009
-2.938402e-009
-8.846797e-009
-5.858480e-009
-8.033656e-011
1.556419e-009
-1.042603e-009
-1.857754e-009
3.621905e-009
1.271991e-008
1.803868e-008
1.503998e-008
6.333639e-009
-1.619834e-009
-5.236438e-009
-6.583285e-009
-9.871993e-009
-1.633116e-008
-2.318698e-008
-2.718313e-008
-2.807916e-008
-2.834667e-008
-3.008411e-008
-3.300070e-008
-3.537529e-008
-3.625636e-008
-3.625127e-008
-3.647544e-008
-3.732734e-008
-3.839168e-008
-3.909945e-008
-3.916352e-008
-3.858777e-008
-3.764240e-008
-3.681874e-008
-3.643343e-008
-3.611307e-008
-3.497744e-008
-3.266338e-008
-3.000032e-008
-2.818298e-008
-2.714616e-008
-2.524188e-008
-2.103644e-008
-1.527374e-008
-1.038281e-008
-7.698601e-009
-5.654808e-009
-1.500631e-009
5.075235e-009
1.073783e-008
1.162355e-008
7.586045e-009
2.648723e-009
8.275830e-010
1.899221e-009
2.023627e-009
-1.316486e-009
-5.710388e-009
-5.972726e-009
-5.204187e-011
7.780268e-009
1.032730e-008
4.343840e-009
-6.014038e-009
-1.265856e-008
-1.054689e-008
-1.579585e-009
7.691015e-009
1.162730e-008
9.068211e-009
2.612209e-009
-4.250044e-009
-8.920331e-009
-9.691488e-009
-5.712590e-009
1.933189e-009
9.400396e-009
1.167135e-008
6.340680e-009
-3.647319e-009
-1.145570e-008
1.260098e-007
7.739250e-008
1.067190e-008
-3.558802e-008
-4.158205e-008
-1.673626e-008
1.224991e-008
2.355403e-008
1.406685e-008
-3.812880e-009
-1.579280e-008
-1.624504e-008
-8.407737e-009
2.019438e-009
1.150986e-008
1.804470e-008
1.884787e-008
1.139211e-008
-2.827824e-009
-1.695130e-008
-2.298677e-008
-1.824093e-008
-7.356492e-009
2.368817e-009
7.554340e-009
1.041594e-008
1.429753e-008
1.857437e-008
1.884116e-008
1.202029e-008
3.630366e-010
-1.032911e-008
-1.631819e-008
-1.920708e-008
-2.351357e-008
-3.152867e-008
-4.111773e-008
-4.846540e-008
-5.231212e-008
-5.504060e-008
-5.983419e-008
-6.731937e-008
-7.518653e-008
-8.078041e-008
-8.369114e-008
-8.580998e-008
-8.911548e-008
-9.356413e-008
-9.708815e-008
-9.758556e-008
-9.495601e-008
-9.121125e-008
-8.847967e-008
-8.681867e-008
-8.413456e-008
-7.849656e-008
-7.049241e-008
-6.291500e-008
-5.783115e-008
-5.419325e-008
-4.889991e-008
-4.040582e-008
-3.080147e-008
-2.370333e-008
-2.009841e-008
-1.695599e-008
-1.051573e-008
-7.396142e-010
8.187391e-009
1.207291e-008
1.098234e-008
8.734020e-009
8.248483e-009
8.166996e-009
4.717399e-009
-3.237193e-009
-1.174464e-008
-1.485487e-008
-1.011285e-008
-7.951423e-010
7.127474e-009
9.859707e-009
7.752341e-009
3.400378e-009
-1.046563e-009
-4.422065e-009
-5.491280e-009
-3.003180e-009
2.376685e-009
6.848246e-009
5.762953e-009
-1.684424e-009
-1.014187e-008
-1.168598e-008
-3.069763e-009
1.010275e-008
1.707199e-008
1.106712e-008
-4.177888e-009
-1.686255e-008
8.169141e-008
3.636309e-008
-2.047325e-008
-4.797179e-008
-2.990381e-008
1.430176e-008
4.700233e-008
4.275605e-008
6.686588e-009
-3.262078e-008
-4.741777e-008
-3.112495e-008
5.635211e-010
2.536379e-008
3.137858e-008
2.192533e-008
7.743848e-009
-3.311671e-009
-9.777869e-009
-1.298166e-008
-1.288985e-008
-8.374002e-009
-3.181589e-010
7.368106e-009
1.063503e-008
8.763651e-009
4.350015e-009
-3.205247e-011
-4.454223e-009
-1.063430e-008
-1.894353e-008
-2.739319e-008
-3.397463e-008
-3.948190e-008
-4.723589e-008
-5.977558e-008
-7.619987e-008
-9.317195e-008
-1.084650e-007
-1.231090e-007
-1.398240e-007
-1.595468e-007
-1.798884e-007
-1.971839e-007
-2.099101e-007
-2.198164e-007
-2.295792e-007
-2.394891e-007
-2.467325e-007
-2.481103e-007
-2.433512e-007
-2.354251e-007
-2.274031e-007
-2.192046e-007
-2.078617e-007
-1.911475e-007
-1.705843e-007
-1.503552e-007
-1.331877e-007
-1.178210e-007
-1.010175e-007
-8.188577e-008
-6.351312e-008
-4.990158e-008
-4.164514e-008
-3.531263e-008
-2.724945e-008
-1.742139e-008
-8.968875e-009
-4.219456e-009
-1.975841e-009
7.994667e-010
5.080814e-009
8.382794e-009
7.501438e-009
2.165279e-009
-4.485084e-009
-8.784022e-009
-9.267607e-009
-6.518289e-009
-1.333604e-009
5.680855e-009
1.249397e-008
1.492201e-008
9.362141e-009
-2.803871e-009
-1.416342e-008
-1.624333e-008
-6.928754e-009
6.736163e-009
1.387396e-008
9.056402e-009
-2.860720e-009
-1.103686e-008
-8.362302e-009
2.245510e-009
1.070889e-008
9.126268e-009
-1.027045e-009
-1.038499e-008
1.016274e-008
-1.090890e-008
-3.329943e-008
-3.431701e-008
-8.095295e-009
2.820313e-008
4.734910e-008
3.395161e-008
-2.668364e-009
-3.549905e-008
-4.116815e-008
-1.797922e-008
1.408058e-008
3.064056e-008
2.229444e-008
-1.040950e-010
-1.710291e-008
-1.739551e-008
-4.837670e-009
8.464054e-009
1.416818e-008
1.301996e-008
1.028206e-008
8.263786e-009
4.347659e-009
-4.553335e-009
-1.737361e-008
-2.963548e-008
-3.828777e-008
-4.483653e-008
-5.349641e-008
-6.702061e-008
-8.507169e-008
-1.063880e-007
-1.314125e-007
-1.619515e-007
-1.984919e-007
-2.387802e-007
-2.796129e-007
-3.197240e-007
-3.602409e-007
-4.020954e-007
-4.434990e-007
-4.806247e-007
-5.108815e-007
-5.350199e-007
-5.555164e-007
-5.729777e-007
-5.847214e-007
-5.873101e-007
-5.802334e-007
-5.664692e-007
-5.491615e-007
-5.281936e-007
-5.006779e-007
-4.648840e-007
-4.230741e-007
-3.799113e-007
-3.382607e-007
-2.972511e-007
-2.547783e-007
-2.113753e-007
-1.708217e-007
-1.368197e-007
-1.097264e-007
-8.709363e-008
-6.705646e-008
-5.027948e-008
-3.822364e-008
-3.022504e-008
-2.330678e-008
-1.507310e-008
-6.077624e-009
1.248414e-009
5.613734e-009
7.911409e-009
9.096753e-009
8.090815e-009
3.141462e-009
-4.501489e-009
-9.493227e-009
-6.571797e-009
3.533009e-009
1.304541e-008
1.326099e-008
2.635729e-009
-1.104644e-008
-1.697724e-008
-1.051998e-008
3.034332e-009
1.327464e-008
1.333892e-008
4.778485e-009
-4.925853e-009
-9.071073e-009
-6.534277e-009
-1.201155e-009
2.386178e-009
2.792451e-009
1.856649e-009
-3.964527e-008
-2.962701e-008
-1.421024e-008
5.587839e-010
1.042541e-008
1.363494e-008
1.003957e-008
1.192556e-009
-8.378395e-009
-1.178405e-008
-4.433603e-009
1.031914e-008
2.109799e-008
1.675248e-008
-3.020505e-009
-2.504368e-008
-3.227649e-008
-1.810999e-008
7.769597e-009
2.768646e-008
3.066108e-008
1.974153e-008
6.044521e-009
-3.144420e-009
-9.953079e-009
-2.090137e-008
-3.847242e-008
-5.901280e-008
-7.847322e-008
-9.855100e-008
-1.260504e-007
-1.665478e-007
-2.197111e-007
-2.810562e-007
-3.472998e-007
-4.189001e-007
-4.974460e-007
-5.817732e-007
-6.676769e-007
-7.512613e-007
-8.315702e-007
-9.093621e-007
-9.838425e-007
-1.051603e-006
-1.109105e-006
-1.155550e-006
-1.192521e-006
-1.220833e-006
-1.238546e-006
-1.242663e-006
-1.232416e-006
-1.210051e-006
-1.178097e-006
-1.136506e-006
-1.083264e-006
-1.017748e-006
-9.426991e-007
-8.623903e-007
-7.792956e-007
-6.933485e-007
-6.045617e-007
-5.155445e-007
-4.306796e-007
-3.530446e-007
-2.830145e-007
-2.201983e-007
-1.659143e-007
-1.226381e-007
-9.087876e-008
-6.757964e-008
-4.848724e-008
-3.186276e-008
-1.894093e-008
-1.051524e-008
-4.160584e-009
3.791388e-009
1.335670e-008
1.925445e-008
1.564917e-008
2.980662e-009
-1.062347e-008
-1.566364e-008
-9.459765e-009
1.792400e-009
8.906321e-009
7.544261e-009
7.687795e-010
-5.014478e-009
-5.795205e-009
-2.115839e-009
2.903214e-009
6.372259e-009
6.687586e-009
3.371143e-009
-2.632284e-009
-8.374697e-009
-9.863496e-009
-5.032584e-009
3.733043e-009
1.057705e-008
-6.066901e-008
-2.446194e-008
1.956625e-008
3.857076e-008
2.182228e-008
-1.282971e-008
-3.633648e-008
-3.246462e-008
-7.680289e-009
1.856183e-008
3.085772e-008
2.656080e-008
1.206446e-008
-5.077048e-009
-1.930133e-008
-2.557721e-008
-1.964848e-008
-2.407991e-009
1.708851e-008
2.620085e-008
1.866017e-008
1.033915e-010
-1.738219e-008
-2.688182e-008
-3.283146e-008
-4.594172e-008
-7.308751e-008
-1.131572e-007
-1.623594e-007
-2.217287e-007
-2.977934e-007
-3.959330e-007
-5.143990e-007
-6.457232e-007
-7.834503e-007
-9.263945e-007
-1.076176e-006
-1.231754e-006
-1.387605e-006
-1.537254e-006
-1.677547e-006
-1.808721e-006
-1.930787e-006
-2.040984e-006
-2.135233e-006
-2.211376e-006
-2.270024e-006
-2.312202e-006
-2.337041e-006
-2.342432e-006
-2.327478e-006
-2.293369e-006
-2.241588e-006
-2.172050e-006
-2.083789e-006
-1.977302e-006
-1.855340e-006
-1.721090e-006
-1.576266e-006
-1.421847e-006
-1.260560e-006
-1.097645e-006
-9.385168e-007
-7.861442e-007
-6.416127e-007
-5.072570e-007
-3.880817e-007
-2.889731e-007
-2.105986e-007
-1.490633e-007
-1.001322e-007
-6.309077e-008
-3.940343e-008
-2.763621e-008
-2.113207e-008
-1.220043e-008
1.109077e-009
1.318920e-008
1.653510e-008
9.307621e-009
-2.759473e-009
-1.147939e-008
-1.261004e-008
-7.512446e-009
-4.050626e-011
6.673942e-009
1.051958e-008
9.575864e-009
3.218651e-009
-5.534009e-009
-1.044924e-008
-6.964054e-009
2.638819e-009
9.948168e-009
7.826560e-009
-2.276240e-009
-1.093446e-008
-9.550375e-009
1.056894e-009
1.107407e-008
-7.179298e-008
-2.187318e-008
3.685375e-008
5.751699e-008
2.679236e-008
-2.600375e-008
-5.632534e-008
-4.232181e-008
4.582027e-012
3.487115e-008
3.845737e-008
1.544372e-008
-1.088754e-008
-2.122683e-008
-1.353607e-008
1.467138e-009
1.299784e-008
1.704858e-008
1.393402e-008
3.933107e-009
-1.238661e-008
-3.142317e-008
-4.784683e-008
-6.074464e-008
-7.782134e-008
-1.117999e-007
-1.719403e-007
-2.594554e-007
-3.712041e-007
-5.065787e-007
-6.692425e-007
-8.619423e-007
-1.080911e-006
-1.316614e-006
-1.559939e-006
-1.806751e-006
-2.056093e-006
-2.304886e-006
-2.545698e-006
-2.770056e-006
-2.973224e-006
-3.155092e-006
-3.316734e-006
-3.457115e-006
-3.573535e-006
-3.664564e-006
-3.731459e-006
-3.776509e-006
-3.800708e-006
-3.803530e-006
-3.784417e-006
-3.743494e-006
-3.680629e-006
-3.594645e-006
-3.484187e-006
-3.349128e-006
-3.190371e-006
-3.008317e-006
-2.802567e-006
-2.574099e-006
-2.327573e-006
-2.070585e-006
-1.810238e-006
-1.551025e-006
-1.296702e-006
-1.053751e-006
-8.315701e-007
-6.381641e-007
-4.758068e-007
-3.417088e-007
-2.330065e-007
-1.501395e-007
-9.445608e-008
-6.285541e-008
-4.612766e-008
-3.363601e-008
-1.977737e-008
-5.748532e-009
4.449044e-009
8.790973e-009
8.135879e-009
4.099094e-009
-1.945594e-009
-7.436292e-009
-8.105743e-009
-1.281197e-009
9.681757e-009
1.593220e-008
1.042088e-008
-4.363549e-009
-1.686344e-008
-1.629128e-008
-2.931410e-009
1.157159e-008
1.489615e-008
5.489494e-009
-6.510894e-009
-9.691672e-009
-2.529874e-009
5.871500e-009
-7.731627e-008
-3.171783e-008
2.309408e-008
4.554721e-008
2.366998e-008
-1.694218e-008
-3.797358e-008
-2.267351e-008
1.135023e-008
3.097322e-008
1.891569e-008
-1.175490e-008
-3.182188e-008
-2.332626e-008
5.933027e-009
3.213338e-008
3.713067e-008
2.100856e-008
-3.372860e-009
-2.454372e-008
-4.069417e-008
-5.738416e-008
-8.162630e-008
-1.200764e-007
-1.810645e-007
-2.748653e-007
-4.099252e-007
-5.890424e-007
-8.100268e-007
-1.069726e-006
-1.366103e-006
-1.695732e-006
-2.050022e-006
-2.415260e-006
-2.776990e-006
-3.124228e-006
-3.449461e-006
-3.745559e-006
-4.004185e-006
-4.218107e-006
-4.384919e-006
-4.507951e-006
-4.593455e-006
-4.647269e-006
-4.674213e-006
-4.679788e-006
-4.671157e-006
-4.655786e-006
-4.639302e-006
-4.624717e-006
-4.612965e-006
-4.603135e-006
-4.591999e-006
-4.574136e-006
-4.543171e-006
-4.492740e-006
-4.415898e-006
-4.304267e-006
-4.149394e-006
-3.946302e-006
-3.695971e-006
-3.404094e-006
-3.077735e-006
-2.724038e-006
-2.352500e-006
-1.977424e-006
-1.616255e-006
-1.284115e-006
-9.895388e-007
-7.353528e-007
-5.229102e-007
-3.543371e-007
-2.302970e-007
-1.464711e-007
-9.348214e-008
-6.069939e-008
-3.986844e-008
-2.541735e-008
-1.303239e-008
-9.341954e-011
1.201200e-008
1.788460e-008
1.306136e-008
1.416345e-010
-1.102449e-008
-1.112362e-008
-3.035836e-010
1.115548e-008
1.213892e-008
1.314778e-009
-1.147758e-008
-1.459874e-008
-5.533655e-009
7.226567e-009
1.272903e-008
7.711864e-009
-1.432796e-009
-6.001163e-009
-3.584231e-009
6.623418e-010
-5.473896e-008
-3.384100e-008
-6.561368e-009
9.971884e-009
9.781559e-009
1.749101e-009
-1.807081e-010
8.569675e-009
1.809627e-008
1.403712e-008
-6.379908e-009
-2.856249e-008
-3.231252e-008
-1.089648e-008
2.108808e-008
3.934716e-008
3.031656e-008
1.168127e-009
-2.927615e-008
-4.903605e-008
-6.366747e-008
-9.155974e-008
-1.513858e-007
-2.543505e-007
-4.058741e-007
-6.109427e-007
-8.755095e-007
-1.202784e-006
-1.589113e-006
-2.023377e-006
-2.489030e-006
-2.965642e-006
-3.429008e-006
-3.851868e-006
-4.207028e-006
-4.471809e-006
-4.631060e-006
-4.677454e-006
-4.610471e-006
-4.436162e-006
-4.167811e-006
-3.825702e-006
-3.434816e-006
-3.021607e-006
-2.611941e-006
-2.230669e-006
-1.901287e-006
-1.644518e-006
-1.476479e-006
-1.407660e-006
-1.442599e-006
-1.579347e-006
-1.808978e-006
-2.116235e-006
-2.481186e-006
-2.880187e-006
-3.285456e-006
-3.665270e-006
-3.987075e-006
-4.222626e-006
-4.351614e-006
-4.361922e-006
-4.248683e-006
-4.015324e-006
-3.676320e-006
-3.257759e-006
-2.793028e-006
-2.315613e-006
-1.853776e-006
-1.429338e-006
-1.058403e-006
-7.509095e-007
-5.092166e-007
-3.285964e-007
-2.006894e-007
-1.169461e-007
-6.862089e-008
-4.434442e-008
-3.021870e-008
-1.507459e-008
3.199027e-009
1.745468e-008
1.918450e-008
7.880403e-009
-7.144288e-009
-1.437355e-008
-9.728489e-009
9.234424e-010
8.118427e-009
7.233402e-009
1.213111e-009
-3.700336e-009
-3.956171e-009
-7.956563e-010
2.252425e-009
2.945283e-009
1.600430e-009
-1.748384e-010
-1.265102e-009
-1.624184e-009
1.335057e-008
-4.812973e-009
-2.458249e-008
-2.805243e-008
-1.154436e-008
1.264276e-008
2.799860e-008
2.655591e-008
1.204313e-008
-5.796296e-009
-1.788671e-008
-1.885576e-008
-8.121907e-009
8.774072e-009
2.084000e-008