# vtk DataFile Version 3.0
vtk output
ASCII
DATASET STRUCTURED_POINTS
DIMENSIONS 100 100 1
SPACING 1 1 1
ORIGIN 0 0 0
POINT_DATA 10000
SCALARS SFBox_profile double
LOOKUP_TABLE default 
0.000000e+000
0.000000e+000
0.000000e+000
0.000000e+000
0.000000e+000
0.000000e+000
0.000000e+000
0.000000e+000
0.000000e+000
0.000000e+000
0.000000e+000
0.000000e+000
0.000000e+000
0.000000e+000
0.000000e+000
0.000000e+000
0.000000e+000
0.000000e+000
0.000000e+000
0.000000e+000
0.000000e+000
0.000000e+000
0.000000e+000
0.000000e+000
0.000000e+000
0.000000e+000
0.000000e+000
0.000000e+000
0.000000e+000
0.000000e+000
0.000000e+000
0.000000e+000
0.000000e+000
0.000000e+000
0.000000e+000
0.000000e+000
0.000000e+000
0.000000e+000
0.000000e+000
0.000000e+000
0.000000e+000
0.000000e+000
0.000000e+000
0.000000e+000
0.000000e+000
0.000000e+000
0.000000e+000
0.000000e+000
0.000000e+000
0.000000e+000
0.000000e+000
0.000000e+000
0.000000e+000
0.000000e+000
0.000000e+000
0.000000e+000
0.000000e+000
0.000000e+000
0.000000e+000
0.000000e+000
0.000000e+000
0.000000e+000
0.000000e+000
0.000000e+000
0.000000e+000
0.000000e+000
0.000000e+000
0.000000e+000
0.000000e+000
0.000000e+000
0.000000e+000
0.000000e+000
0.000000e+000
0.000000e+000
0.000000e+000
0.000000e+000
0.000000e+000
0.000000e+000
0.000000e+000
0.000000e+000
0.000000e+000
0.000000e+000
0.000000e+000
0.000000e+000
0.000000e+000
0.000000e+000
0.000000e+000
0.000000e+000
0.000000e+000
0.000000e+000
0.000000e+000
0.000000e+000
0.000000e+000
0.000000e+000
0.000000e+000
0.000000e+000
0.000000e+000
0.000000e+000
0.000000e+000
0.000000e+000
9.085993e-012
8.540754e-012
7.263154e-012
5.066749e-012
2.053001e-012
-1.260573e-012
-4.101913e-012
-5.740609e-012
-5.853316e-012
-4.633640e-012
-2.588864e-012
-2.807924e-013
1.874633e-012
3.676088e-012
5.035508e-012
5.855962e-012
5.970999e-012
5.228345e-012
3.618963e-012
1.344749e-012
-1.240452e-012
-3.715072e-012
-5.712338e-012
-7.022316e-012
-7.591234e-012
-7.503475e-012
-6.889792e-012
-5.907333e-012
-4.661249e-012
-3.250589e-012
-1.748340e-012
-2.333830e-013
1.196455e-012
2.445431e-012
3.407208e-012
4.000281e-012
4.191444e-012
3.970765e-012
3.369819e-012
2.462503e-012
1.347683e-012
1.196904e-013
-1.124511e-012
-2.316467e-012
-3.375222e-012
-4.244921e-012
-4.890595e-012
-5.302295e-012
-5.460550e-012
-5.371607e-012
-5.030197e-012
-4.469542e-012
-3.717624e-012
-2.812930e-012
-1.810016e-012
-7.740898e-013
2.324980e-013
1.116430e-012
1.827702e-012
2.312905e-012
2.557310e-012
2.561976e-012
2.344592e-012
1.956224e-012
1.470652e-012
9.651680e-013
4.894422e-013
1.132160e-013
-1.406634e-013
-2.894909e-013
-3.406609e-013
-3.206487e-013
-2.658766e-013
-2.003710e-013
-1.395492e-013
-8.681257e-014
-3.477911e-014
4.373386e-015
3.956485e-014
7.809566e-014
1.001095e-013
1.061091e-013
9.897133e-014
7.650427e-014
3.664792e-014
-1.111401e-014
-5.816079e-014
-1.007337e-013
-1.297053e-013
-1.214370e-013
-7.769118e-014
-1.796118e-014
5.010482e-014
1.097409e-013
1.370557e-013
1.123679e-013
5.665947e-014
-1.363369e-014
-8.367858e-014
-1.242802e-013
1.029555e-011
8.508126e-012
5.443256e-012
1.954680e-012
-1.064438e-012
-2.980671e-012
-3.628814e-012
-3.270243e-012
-2.392740e-012
-1.375075e-012
-3.336347e-013
8.144797e-013
2.116713e-012
3.392671e-012
4.241556e-012
4.229321e-012
3.119753e-012
1.060875e-012
-1.459107e-012
-3.784361e-012
-5.390026e-012
-5.987535e-012
-5.595353e-012
-4.451322e-012
-2.887133e-012
-1.198736e-012
3.971527e-013
1.790107e-012
2.924622e-012
3.774025e-012
4.322218e-012
4.545621e-012
4.434524e-012
3.994686e-012
3.259639e-012
2.294607e-012
1.193684e-012
5.630060e-014
-1.033648e-012
-1.999508e-012
-2.791646e-012
-3.399792e-012
-3.828225e-012
-4.121775e-012
-4.307654e-012
-4.425692e-012
-4.517343e-012
-4.611506e-012
-4.725541e-012
-4.853512e-012
-4.980022e-012
-5.091638e-012
-5.143323e-012
-5.116628e-012
-4.978233e-012
-4.699152e-012
-4.280130e-012
-3.729617e-012
-3.067653e-012
-2.341744e-012
-1.599262e-012
-9.031511e-013
-3.094574e-013
1.464403e-013
4.440837e-013
5.896669e-013
5.935930e-013
5.054773e-013
3.633818e-013
2.034511e-013
6.506724e-014
-3.061881e-014
-9.654697e-014
-1.307366e-013
-1.407978e-013
-1.270974e-013
-1.029670e-013
-7.315748e-014
-3.314521e-014
8.259166e-015
5.390169e-014
7.854366e-014
8.344100e-014
7.421032e-014
4.818166e-014
1.610771e-014
-1.260305e-014
-3.838668e-014
-5.770868e-014
-7.112785e-014
-6.932504e-014
-4.375999e-014
-2.933487e-015
4.374792e-014
8.310620e-014
9.007978e-014
5.793124e-014
4.203816e-015
-5.484769e-014
-9.638239e-014
8.847345e-012
5.979745e-012
1.565796e-012
-2.442939e-012
-4.477362e-012
-4.086262e-012
-2.029789e-012
3.702756e-013
2.049246e-012
2.758111e-012
2.938960e-012
3.126352e-012
3.377057e-012
3.173979e-012
1.857010e-012
-8.287638e-013
-4.383155e-012
-7.740491e-012
-9.729032e-012
-9.623300e-012
-7.389504e-012
-3.628499e-012
7.385728e-013
4.833678e-012
8.047799e-012
1.012274e-011
1.108139e-011
1.109441e-011
1.035125e-011
9.003981e-012
7.188104e-012
5.014875e-012
2.631133e-012
2.103733e-013
-2.047258e-012
-3.939653e-012
-5.308890e-012
-6.050528e-012
-6.135675e-012
-5.604982e-012
-4.573170e-012
-3.193769e-012
-1.619690e-012
-2.058018e-014
1.462213e-012
2.708465e-012
3.630919e-012
4.173490e-012
4.309918e-012
4.038828e-012
3.387149e-012
2.406480e-012
1.182588e-012
-2.005703e-013
-1.636296e-012
-3.005323e-012
-4.188245e-012
-5.082036e-012
-5.603136e-012
-5.721881e-012
-5.447733e-012
-4.836853e-012
-3.978870e-012
-2.983225e-012
-1.977626e-012
-1.076367e-012
-3.626048e-013
1.310965e-013
4.032401e-013
4.928804e-013
4.564777e-013
3.616241e-013
2.371479e-013
1.155522e-013
1.684670e-014
-6.224303e-014
-1.189932e-013
-1.562904e-013
-1.647463e-013
-1.394747e-013
-8.624532e-014
-2.372176e-014
2.896569e-014
6.455051e-014
7.607926e-014
7.146078e-014
6.503515e-014
5.409685e-014
3.418483e-014
5.374972e-015
-3.543613e-014
-6.608089e-014
-7.591721e-014
-5.471823e-014
-8.843256e-015
2.992825e-014
4.473845e-014
3.375722e-014
1.314418e-015
-2.639085e-014
5.970607e-013
-1.341636e-012
-3.920622e-012
-5.404058e-012
-4.782345e-012
-2.315594e-012
7.832148e-013
3.333337e-012
4.911743e-012
5.795875e-012
6.309582e-012
6.164095e-012
4.511975e-012
6.678121e-013
-5.088983e-012
-1.121795e-011
-1.554748e-011
-1.625930e-011
-1.275974e-011
-5.926044e-012
2.383304e-012
1.010176e-011
1.569362e-011
1.846991e-011
1.856125e-011
1.658448e-011
1.329323e-011
9.338367e-012
5.175159e-012
1.078197e-012
-2.745704e-012
-6.110258e-012
-8.812385e-012
-1.064242e-011
-1.145014e-011
-1.116776e-011
-9.829004e-012
-7.575712e-012
-4.630917e-012
-1.255298e-012
2.288297e-012
5.762329e-012
8.987636e-012
1.185076e-011
1.426176e-011
1.619723e-011
1.764157e-011
1.860652e-011
1.908315e-011
1.908311e-011
1.859651e-011
1.762626e-011
1.619117e-011
1.432136e-011
1.207363e-011
9.537708e-012
6.844729e-012
4.143277e-012
1.615565e-012
-5.910011e-013
-2.342010e-012
-3.539951e-012
-4.154169e-012
-4.222077e-012
-3.840900e-012
-3.152192e-012
-2.320802e-012
-1.491271e-012
-7.726962e-013
-2.292691e-013
1.264914e-013
3.253330e-013
3.948696e-013
3.816155e-013
3.151680e-013
2.118630e-013
8.130057e-014
-6.608393e-014
-1.961945e-013
-2.738097e-013
-2.877356e-013
-2.295248e-013
-1.226118e-013
-8.890527e-015
9.182557e-014
1.357501e-013
1.495483e-013
1.412641e-013
1.169292e-013
7.822403e-014
2.291238e-014
-4.006047e-014
-1.022818e-013
-1.284828e-013
-1.130425e-013
-7.474844e-014
-1.425017e-014
3.714036e-014
7.024777e-014
7.806466e-014
-1.417600e-011
-1.246129e-011
-9.208728e-012
-5.014145e-012
-9.053570e-013
2.130251e-012
3.829594e-012
4.886347e-012
6.255235e-012
8.009604e-012
8.779835e-012
6.505446e-012
9.181191e-014
-9.252463e-012
-1.813671e-011
-2.254336e-011
-1.995829e-011
-1.065369e-011
2.482766e-012
1.533341e-011
2.432975e-011
2.762859e-011
2.536657e-011
1.908324e-011
1.081583e-011
2.367498e-012
-5.100102e-012
-1.106123e-011
-1.540536e-011
-1.820374e-011
-1.953507e-011
-1.943822e-011
-1.794768e-011
-1.516294e-011
-1.130536e-011
-6.693173e-012
-1.727856e-012
3.181069e-012
7.672368e-012
1.150832e-011
1.455113e-011
1.678174e-011
1.831022e-011
1.928565e-011
1.988823e-011
2.029171e-011
2.064299e-011
2.104168e-011
2.152425e-011
2.207643e-011
2.264599e-011
2.313027e-011
2.340877e-011
2.335775e-011
2.285246e-011
2.180295e-011
2.015115e-011
1.792188e-011
1.519624e-011
1.212453e-011
8.909208e-012
5.778111e-012
2.965761e-012
6.602780e-013
-1.024254e-012
-2.062523e-012
-2.502709e-012
-2.466625e-012
-2.107776e-012
-1.596219e-012
-1.056370e-012
-5.684687e-013
-1.720337e-013
1.213274e-013
3.188020e-013
4.212949e-013
4.155022e-013
2.932465e-013
8.783961e-014
-1.490729e-013
-3.421845e-013
-4.332841e-013
-3.853548e-013
-2.306634e-013
-3.658192e-014
1.167889e-013
1.977725e-013
2.082366e-013
1.764261e-013
1.292305e-013
8.331762e-014
2.836873e-014
-5.008978e-014
-1.326633e-013
-1.931648e-013
-1.908979e-013
-1.163302e-013
4.210538e-015
1.244477e-013
1.982879e-013
-2.880276e-011
-2.221444e-011
-1.182569e-011
-1.768500e-012
4.663583e-012
6.776986e-012
6.553426e-012
6.735795e-012
8.283679e-012
9.198853e-012
6.020283e-012
-3.011744e-012
-1.558954e-011
-2.585538e-011
-2.763510e-011
-1.819718e-011
-5.835400e-014
2.025133e-011
3.541334e-011
4.056230e-011
3.492731e-011
2.134604e-011
4.428495e-012
-1.147021e-011
-2.349289e-011
-3.063586e-011
-3.323736e-011
-3.231383e-011
-2.893267e-011
-2.389519e-011
-1.771306e-011
-1.078498e-011
-3.486304e-012
3.731810e-012
1.036391e-011
1.592754e-011
2.004315e-011
2.252079e-011
2.337853e-011
2.282372e-011
2.117872e-011
1.883663e-011
1.619261e-011
1.358984e-011
1.128935e-011
9.470785e-012
8.252206e-012
7.672382e-012
7.720063e-012
8.359812e-012
9.531777e-012
1.113755e-011
1.305885e-011
1.514864e-011
1.722782e-011
1.909446e-011
2.054035e-011
2.135609e-011
2.140211e-011
2.058565e-011
1.891642e-011
1.649639e-011
1.354533e-011
1.033216e-011
7.147244e-012
4.268924e-012
1.910613e-012
1.754490e-013
-9.317005e-013
-1.501331e-012
-1.666346e-012
-1.549067e-012
-1.258406e-012
-8.755011e-013
-4.407163e-013
-6.638205e-015
3.659177e-013
5.858592e-013
6.002097e-013
4.057481e-013
6.374451e-014
-2.958231e-013
-5.303011e-013
-5.568402e-013
-3.951937e-013
-1.391418e-013
9.082420e-014
2.176197e-013
2.383518e-013
2.013814e-013
1.543882e-013
1.104955e-013
4.127616e-014
-7.126620e-014
-1.928306e-013
-2.608591e-013
-2.112816e-013
-5.400136e-014
1.395034e-013
2.703572e-013
-3.320358e-011
-2.402997e-011
-1.038332e-011
1.509979e-012
8.016644e-012
9.858386e-012
1.025440e-011
1.101921e-011
1.020921e-011
3.816437e-012
-9.695800e-012
-2.596034e-011
-3.589768e-011
-3.123216e-011
-1.040682e-011
1.951924e-011
4.625283e-011
5.863839e-011
5.194620e-011
2.929402e-011
-8.214083e-013
-2.886145e-011
-4.798836e-011
-5.565597e-011
-5.306668e-011
-4.345898e-011
-3.035025e-011
-1.643558e-011
-3.274363e-012
8.489981e-012
1.863351e-011
2.703037e-011
3.351101e-011
3.786836e-011
3.999802e-011
3.999679e-011
3.820119e-011
3.513848e-011
3.145503e-011
2.776888e-011
2.456732e-011
2.215797e-011
2.066081e-011
2.000006e-011
1.996565e-011
2.030107e-011
2.073694e-011
2.104192e-011
2.106896e-011
2.076040e-011
2.016355e-011
1.937960e-011
1.856142e-011
1.788543e-011
1.749176e-011
1.747537e-011
1.783602e-011
1.848462e-011
1.924922e-011
1.990557e-011
2.019350e-011
1.989702e-011
1.888181e-011
1.712911e-011
1.474977e-011
1.194958e-011
9.013775e-012
6.210423e-012
3.750472e-012
1.763225e-012
2.874057e-013
-7.173520e-013
-1.320492e-012
-1.578778e-012
-1.518922e-012
-1.164156e-012
-5.881275e-013
8.412968e-014
6.629061e-013
9.674758e-013
8.911966e-013
4.719670e-013
-9.885806e-014
-5.826280e-013
-7.783688e-013
-6.579514e-013
-3.265212e-013
1.880910e-014
2.363291e-013
2.978621e-013
2.583126e-013
1.942243e-013
1.191969e-013
1.046769e-014
-1.234081e-013
-2.266723e-013
-2.285486e-013
-1.034683e-013
8.959992e-014
2.291547e-013
-2.092198e-011
-1.463767e-011
-5.605362e-012
2.319507e-012
7.976724e-012
1.249688e-011
1.586060e-011
1.448936e-011
3.581078e-012
-1.700080e-011
-3.879062e-011
-4.772453e-011
-3.323112e-011
3.146112e-012
4.655834e-011
7.646918e-011
7.800220e-011
4.961207e-011
2.869797e-012
-4.438251e-011
-7.663585e-011
-8.645128e-011
-7.527735e-011
-5.043424e-011
-2.075334e-011
6.775435e-012
2.839297e-011
4.325381e-011
5.223839e-011
5.679046e-011
5.814516e-011
5.716165e-011
5.446372e-011
5.067893e-011
4.656970e-011
4.305017e-011
4.104662e-011
4.133609e-011
4.439875e-011
5.031554e-011
5.877390e-011
6.914264e-011
8.057820e-011
9.214186e-011
1.029178e-010
1.121057e-010
1.190737e-010
1.233791e-010
1.247874e-010
1.232718e-010
1.189847e-010
1.122465e-010
1.035092e-010
9.334830e-011
8.239307e-011
7.130368e-011
6.069419e-011
5.106161e-011
4.277577e-011
3.599610e-011
3.069720e-011
2.666616e-011
2.357788e-011
2.106095e-011
1.878122e-011
1.648519e-011
1.407356e-011
1.156152e-011
9.047243e-012
6.664549e-012
4.516328e-012
2.644066e-012
1.053254e-012
-2.634785e-013
-1.264522e-012
-1.842311e-012
-1.903961e-012
-1.422973e-012
-5.201010e-013
5.041381e-013
1.272421e-012
1.485564e-012
1.072484e-012
2.531345e-013
-5.753773e-013
-1.032349e-012
-9.818332e-013
-5.534770e-013
-4.115118e-014
2.917338e-013
3.779684e-013
2.992562e-013
1.774723e-013
7.412705e-014
-3.743602e-015
-7.545664e-014
-1.153661e-013
-8.934570e-014
-1.789309e-014
4.707274e-014
4.797279e-012
2.944191e-012
1.007611e-012
1.998732e-012
7.875025e-012
1.597997e-011
1.803305e-011
5.327965e-012
-2.212533e-011
-5.058497e-011
-5.861755e-011
-3.220659e-011
2.242778e-011
7.913100e-011
1.065136e-010
8.695181e-011
2.691645e-011
-4.749346e-011
-1.054024e-010
-1.263292e-010
-1.073610e-010
-6.062068e-011
-4.767498e-012
4.378476e-011
7.586529e-011
9.002710e-011
8.997068e-011
8.125258e-011
6.886538e-011
5.620082e-011
4.516964e-011
3.682897e-011
3.198491e-011
3.144624e-011
3.602707e-011
4.631456e-011
6.248384e-011
8.414367e-011
1.103746e-010
1.398176e-010
1.708984e-010
2.020115e-010
2.316840e-010
2.586722e-010
2.820015e-010
3.009776e-010
3.151349e-010
3.241922e-010
3.280192e-010
3.266125e-010
3.200641e-010
3.086056e-010
2.925900e-010
2.725387e-010
2.491438e-010
2.232851e-010
1.959678e-010
1.682842e-010
1.413310e-010
1.161108e-010
9.343983e-011
7.385797e-011
5.759933e-011
4.458698e-011
3.448974e-011
2.680881e-011
2.100885e-011
1.659411e-011
1.317627e-011
1.048192e-011
8.307407e-012
6.484535e-012
4.831012e-012
3.184789e-012
1.466908e-012
-2.406559e-013
-1.691758e-012
-2.532394e-012
-2.486032e-012
-1.543933e-012
-5.824146e-014
1.360868e-012
2.096717e-012
1.840121e-012
7.982919e-013
-4.404722e-013
-1.254814e-012
-1.322418e-012
-7.940136e-013
-1.114237e-013
3.239162e-013
4.016101e-013
2.711175e-013
1.497096e-013
1.246021e-013
1.353205e-013
1.008160e-013
-9.794535e-015
-1.447560e-013
-2.363251e-013
3.157261e-011
2.146688e-011
9.687146e-012
5.814996e-012
1.111874e-011
1.508034e-011
3.217406e-012
-2.780606e-011
-6.091543e-011
-6.679740e-011
-2.676473e-011
4.752520e-011
1.157018e-010
1.333267e-010
8.192689e-011
-1.777925e-011
-1.182029e-010
-1.727916e-010
-1.601767e-010
-9.105503e-011
2.574373e-012
8.587911e-011
1.360327e-010
1.474989e-010
1.285037e-010
9.335038e-011
5.551907e-011
2.397256e-011
2.791678e-012
-7.286511e-012
-6.974122e-012
2.894825e-012
2.182960e-011
4.948574e-011
8.530347e-011
1.282041e-010
1.765455e-010
2.282345e-010
2.810210e-010
3.327763e-010
3.817108e-010
4.264952e-010
4.662666e-010
5.005386e-010
5.291120e-010
5.519507e-010
5.690828e-010
5.805242e-010
5.862548e-010
5.861936e-010
5.802286e-010
5.682451e-010
5.501779e-010
5.260815e-010
4.961772e-010
4.609389e-010
4.211212e-010
3.777606e-010
3.321589e-010
2.858059e-010
2.402963e-010
1.971513e-010
1.576999e-010
1.229393e-010
9.342019e-011
6.925318e-011
5.016917e-011
3.562891e-011
2.496033e-011
1.746297e-011
1.247515e-011
9.379176e-012
7.556200e-012
6.367853e-012
5.203100e-012
3.609982e-012
1.466142e-012
-9.094323e-013
-2.859970e-012
-3.683434e-012
-3.023151e-012
-1.136208e-012
1.114605e-012
2.648680e-012
2.775474e-012
1.577758e-012
-1.556390e-013
-1.431560e-012
-1.686799e-012
-1.083496e-012
-2.396333e-013
2.897688e-013
3.919232e-013
3.112362e-013
2.912813e-013
3.476582e-013
3.185132e-013
9.350608e-014
-2.469275e-013
-5.044501e-013
4.659504e-011
3.524173e-011
2.265662e-011
1.694830e-011
1.303089e-011
-3.706670e-012
-3.913158e-011
-7.491414e-011
-7.562518e-011
-1.865796e-011
7.755742e-011
1.556908e-010
1.564734e-010
6.326730e-011
-8.148489e-011
-2.013152e-010
-2.329857e-010
-1.621043e-010
-2.579126e-011
1.137222e-010
2.034221e-010
2.211312e-010
1.768932e-010
9.964396e-011
2.037999e-011
-3.932836e-011
-7.061768e-011
-7.445789e-011
-5.647745e-011
-2.270304e-011
2.254491e-011
7.683845e-011
1.387782e-010
2.070567e-010
2.799088e-010
3.550672e-010
4.300454e-010
5.025076e-010
5.705717e-010
6.329677e-010
6.890111e-010
7.384898e-010
7.814666e-010
8.181317e-010
8.486601e-010
8.731619e-010
8.916299e-010
9.039871e-010
9.100844e-010
9.097528e-010
9.028167e-010
8.891026e-010
8.684628e-010
8.407688e-010
8.059705e-010
7.641470e-010
7.156017e-010
6.608949e-010
6.009379e-010
5.369990e-010
4.706971e-010
4.039162e-010
3.386797e-010
2.769741e-010
2.205213e-010
1.705969e-010
1.279500e-010
9.277059e-011
6.479769e-011
4.344562e-011
2.796666e-011
1.754436e-011
1.130638e-011
8.249262e-012
7.183737e-012
6.798739e-012
5.912754e-012
3.845573e-012
7.038833e-013
-2.615798e-012
-4.812705e-012
-4.879777e-012
-2.767154e-012
4.540627e-013
3.113445e-012
3.878998e-012
2.579092e-012
2.492014e-013
-1.626719e-012
-2.140622e-012
-1.456349e-012
-4.048229e-013
3.065991e-013
5.416912e-013
5.508536e-013
5.303175e-013
4.397046e-013
1.542179e-013
-2.872263e-013
-6.294061e-013
4.740866e-011
4.435351e-011
3.945503e-011
2.789717e-011
-1.339066e-012
-5.026099e-011
-9.495185e-011
-9.213630e-011
-1.537278e-011
1.077550e-010
1.983903e-010
1.787528e-010
3.590259e-011
-1.578656e-010
-2.887376e-010
-2.765073e-010
-1.246335e-010
8.744818e-011
2.572373e-010
3.164914e-010
2.582809e-010
1.261992e-010
-1.782445e-011
-1.241195e-010
-1.700975e-010
-1.582616e-010
-1.049677e-010
-2.865021e-011
5.730760e-011
1.462699e-010
2.365705e-010
3.286797e-010
4.230472e-010
5.191172e-010
6.153997e-010
7.099700e-010
8.010026e-010
8.870812e-010
9.672567e-010
1.040969e-009
1.107859e-009
1.167635e-009
1.219995e-009
1.264611e-009
1.301193e-009
1.329505e-009
1.349403e-009
1.360864e-009
1.363967e-009
1.358864e-009
1.345752e-009
1.324788e-009
1.296056e-009
1.259541e-009
1.215107e-009
1.162602e-009
1.101969e-009
1.033351e-009
9.572282e-010
8.745181e-010
7.865881e-010
6.952701e-010
6.027986e-010
5.116765e-010
4.244470e-010
3.434112e-010
2.704122e-010
2.066373e-010
1.526013e-010
1.082263e-010
7.302406e-011
4.631534e-011
2.737242e-011
1.537166e-011
9.226185e-012
7.367743e-012
7.746634e-012
8.151382e-012
6.861954e-012
3.324310e-012
-1.512342e-012
-5.616866e-012
-6.996330e-012
-4.941365e-012
-6.123904e-013
3.492354e-012
5.124558e-012
3.713509e-012
6.359801e-013
-1.951624e-012
-2.698068e-012
-1.801881e-012
-3.863900e-013
5.709089e-013
8.437781e-013
7.142073e-013
4.526027e-013
1.213445e-013
-2.496493e-013
-5.167686e-013
4.433945e-011
5.170420e-011
5.033923e-011
1.934400e-011
-4.481498e-011
-1.093372e-010
-1.151627e-010
-2.435997e-011
1.289565e-010
2.397455e-010
2.036594e-010
8.234707e-012
-2.382613e-010
-3.747329e-010
-3.017141e-010
-5.165510e-011
2.362456e-010
4.099333e-010
3.941002e-010
2.188342e-010
-1.668007e-011
-2.079043e-010
-2.932404e-010
-2.666020e-010
-1.604861e-010
-1.869882e-011
1.246347e-010
2.531251e-010
3.655430e-010
4.685539e-010
5.700314e-010
6.752289e-010
7.858993e-010
9.010475e-010
1.018173e-009
1.134260e-009
1.246262e-009
1.351272e-009
1.446603e-009
1.529888e-009
1.599244e-009
1.653486e-009
1.692354e-009
1.716598e-009
1.727926e-009
1.728778e-009
1.721981e-009
1.710392e-009
1.696493e-009
1.682067e-009
1.667981e-009
1.654067e-009
1.639152e-009
1.621176e-009
1.597465e-009
1.565058e-009
1.521165e-009
1.463592e-009
1.391116e-009
1.303707e-009
1.202571e-009
1.090089e-009
9.695843e-010
8.450771e-010
7.208806e-010
6.011788e-010
4.895971e-010
3.888546e-010
3.005845e-010
2.253227e-010
1.627291e-010
1.119474e-010
7.204491e-011
4.229207e-011
2.213953e-011
1.083397e-011
6.884644e-012
7.718973e-012
9.939105e-012
1.028494e-011
6.975591e-012
6.390883e-013
-5.917267e-012
-9.259335e-012
-7.563409e-012
-2.013335e-012
3.835667e-012
6.461714e-012
4.822835e-012
8.435188e-013
-2.420074e-012
-3.171139e-012
-1.845786e-012
-8.296777e-014
8.687408e-013
8.565229e-013
4.229864e-013
4.634263e-014
-1.348987e-013
-1.889787e-013
4.891550e-011
5.399217e-011
3.591549e-011
-2.613540e-011
-1.059524e-010
-1.309776e-010
-4.102742e-011
1.365061e-010
2.739995e-010
2.320022e-010
-1.205823e-011
-3.144278e-010
-4.570620e-010
-3.145270e-010
4.426861e-011
4.033438e-010
5.518425e-010
4.185397e-010
9.707618e-011
-2.345040e-010
-4.254892e-010
-4.205939e-010
-2.585360e-010
-2.449030e-011
2.026868e-010
3.804198e-010
5.045794e-010
5.946822e-010
6.761350e-010
7.682799e-010
8.802221e-010
1.011996e-009
1.157725e-009
1.308500e-009
1.454180e-009
1.584331e-009
1.688848e-009
1.758679e-009
1.786711e-009
1.768745e-009
1.704280e-009
1.596933e-009
1.454407e-009
1.287915e-009
1.111179e-009
9.391160e-010
7.864251e-010
6.661752e-010
5.885400e-010
5.598106e-010
5.817528e-010
6.514643e-010
7.616509e-010
9.013263e-010
1.056825e-009
1.213108e-009
1.355212e-009
1.469765e-009
1.546336e-009
1.578388e-009
1.563774e-009
1.504578e-009
1.406549e-009
1.278183e-009
1.129587e-009
9.712825e-010
8.130473e-010
6.630055e-010
5.269955e-010
4.083495e-010
3.080063e-010
2.250607e-010
1.575726e-010
1.035461e-010
6.168281e-011
3.157225e-011
1.314117e-011
5.570991e-012
6.287031e-012
1.077818e-011
1.380108e-011
1.156447e-011
3.846882e-012
-5.688775e-012
-1.163793e-011
-1.055076e-011
-3.574853e-012
4.257182e-012
7.858778e-012
5.800826e-012
8.702326e-013
-2.844590e-012
-3.357350e-012
-1.642864e-012
1.224705e-013
7.159667e-013
4.099281e-013
5.644046e-014
6.982559e-014
2.460950e-013
5.547623e-011
3.547584e-011
-2.065691e-011
-1.008232e-010
-1.377438e-010
-5.508463e-011
1.376522e-010
3.033081e-010
2.662762e-010
-1.911278e-011
-3.815602e-010
-5.389253e-010
-3.276766e-010
1.461424e-010
5.743283e-010
6.753650e-010
3.919226e-010
-9.081354e-011
-4.928710e-010
-6.203036e-010
-4.533156e-010
-1.116532e-010
2.457787e-010
5.088875e-010
6.492238e-010
7.019669e-010
7.265988e-010
7.736657e-010
8.694389e-010
1.016154e-009
1.199591e-009
1.396959e-009
1.581871e-009
1.726677e-009
1.803637e-009
1.786331e-009
1.651829e-009
1.383431e-009
9.733362e-010
4.246471e-010
-2.477200e-010
-1.017388e-009
-1.848095e-009
-2.696284e-009
-3.514333e-009
-4.254139e-009
-4.870694e-009
-5.325481e-009
-5.589476e-009
-5.645495e-009
-5.489736e-009
-5.132223e-009
-4.596136e-009
-3.916065e-009
-3.135332e-009
-2.302596e-009
-1.467940e-009
-6.787907e-010
2.403890e-011
6.096406e-010
1.059143e-009
1.366334e-009
1.536854e-009
1.586167e-009
1.536700e-009
1.414590e-009
1.246471e-009
1.056707e-009
8.653664e-010
6.870669e-010
5.306460e-010
3.995585e-010
2.929826e-010
2.074829e-010
1.389967e-010
8.460011e-011
4.341184e-011
1.612805e-011
3.283386e-012
3.095671e-012
1.026459e-011
1.710757e-011
1.692861e-011
7.962964e-012
-5.141062e-012
-1.427869e-011
-1.383449e-011
-5.065874e-012
4.997856e-012
9.426511e-012
6.685593e-012
7.870548e-013
-3.231647e-012
-3.508184e-012
-1.682549e-012
-1.246276e-013
3.119455e-013
2.594875e-013
4.016366e-013
6.752085e-013
3.315993e-011
-2.525818e-011
-1.131689e-010
-1.588339e-010
-7.806824e-011
1.337143e-010
3.358830e-010
3.179535e-010
-8.818153e-013
-4.336019e-010
-6.275810e-010
-3.609562e-010
2.329288e-010
7.400972e-010
7.884489e-010
3.356398e-010
-3.155867e-010
-7.586084e-010
-7.610800e-010
-3.744501e-010
1.604009e-010
5.958853e-010
8.098849e-010
8.267496e-010
7.555296e-010
7.102777e-010
7.597866e-010
9.172680e-010
1.155107e-009
1.424876e-009
1.670842e-009
1.835039e-009
1.857685e-009
1.677466e-009
1.234240e-009
4.744455e-010
-6.420211e-010
-2.135082e-009
-3.999263e-009
-6.200867e-009
-8.677935e-009
-1.134288e-008
-1.408755e-008
-1.678996e-008
-1.932222e-008
-2.155873e-008
-2.338436e-008
-2.470207e-008
-2.543950e-008
-2.555421e-008
-2.503711e-008
-2.391376e-008
-2.224321e-008
-2.011443e-008
-1.764032e-008
-1.494984e-008
-1.217878e-008
-9.459803e-009
-6.912643e-009
-4.635292e-009
-2.697490e-009
-1.137380e-009
3.829646e-011
8.506870e-010
1.342799e-009
1.571943e-009
1.601807e-009
1.495202e-009
1.308408e-009
1.087409e-009
8.661426e-010
6.663295e-010
4.985591e-010
3.643921e-010
2.593602e-010
1.765133e-010
1.099710e-010
5.730941e-011
1.977107e-011
-3.387770e-014
-2.018954e-012
8.277613e-012
2.020109e-011
2.299432e-011
1.265568e-011
-4.788045e-012
-1.752783e-011
-1.730238e-011
-6.014878e-012
6.491759e-012
1.131881e-011
7.361337e-012
2.654141e-013
-4.032009e-012
-4.033397e-012
-1.947720e-012
-2.112796e-013
5.520497e-013
8.604520e-013
1.050939e-012
-5.765676e-011
-1.348754e-010
-1.996035e-010
-1.327953e-010
1.002952e-010
3.604075e-010
3.943043e-010
6.338686e-011
-4.515735e-010
-7.227449e-010
-4.361305e-010
2.773854e-010
8.913203e-010
9.093320e-010
2.849038e-010
-5.439278e-010
-1.012858e-009
-8.475944e-010
-2.051316e-010
5.110795e-010
9.551888e-010
1.025575e-009
8.500046e-010
6.459938e-010
5.828915e-010
7.203958e-010
1.021675e-009
1.398169e-009
1.746884e-009
1.965005e-009
1.947367e-009
1.579235e-009
7.339579e-010
-7.211780e-010
-2.912237e-009
-5.942513e-009
-9.876349e-009
-1.472563e-008
-2.044063e-008
-2.690640e-008
-3.394502e-008
-4.132347e-008
-4.876635e-008
-5.597193e-008
-6.263029e-008
-6.844198e-008
-7.313608e-008
-7.648665e-008
-7.832666e-008
-7.855873e-008
-7.716218e-008
-7.419594e-008
-6.979681e-008
-6.417253e-008
-5.758972e-008
-5.035705e-008
-4.280480e-008
-3.526231e-008
-2.803517e-008
-2.138415e-008
-1.550833e-008
-1.053465e-008
-6.515270e-009
-3.432755e-009
-1.211938e-009
2.638001e-010
1.134466e-009
1.546129e-009
1.636547e-009
1.525117e-009
1.307386e-009
1.053554e-009
8.097952e-010
6.012408e-010
4.360264e-010
3.102587e-010
2.138155e-010
1.364294e-010
7.267000e-011
2.386116e-011
-4.488220e-012
-9.012619e-012
5.135420e-012
2.349982e-011
2.979160e-011
1.730227e-011
-5.497725e-012
-2.172967e-011
-2.048594e-011
-5.627575e-012
9.135308e-012
1.324261e-011
7.119831e-012
-1.289465e-012
-5.357731e-012
-4.395656e-012
-1.523256e-012
5.628882e-013
1.313648e-012
1.398813e-012
-2.286717e-010
-2.641916e-010
-2.134636e-010
2.030830e-011
3.431456e-010
4.722258e-010
1.802448e-010
-4.072345e-010
-8.036047e-010
-5.618703e-010
2.504275e-010
1.010836e-009
1.054866e-009
2.800761e-010
-7.430784e-010
-1.253195e-009
-9.081227e-010
8.240031e-012
8.874173e-010
1.273221e-009
1.121521e-009
7.193707e-010
4.218307e-010
4.359427e-010
7.639830e-010
1.270763e-009
1.778102e-009
2.117725e-009
2.131685e-009
1.646012e-009
4.470090e-010
-1.724177e-009
-5.157397e-009
-1.014562e-008
-1.695032e-008
-2.576563e-008
-3.668580e-008
-4.967938e-008
-6.457357e-008
-8.105091e-008
-9.865900e-008
-1.168323e-007
-1.349234e-007
-1.522404e-007
-1.680864e-007
-1.817998e-007
-1.927904e-007
-2.005719e-007
-2.047882e-007
-2.052334e-007
-2.018642e-007
-1.948066e-007
-1.843525e-007
-1.709489e-007
-1.551755e-007
-1.377129e-007
-1.193018e-007
-1.006952e-007
-8.260906e-008
-6.567426e-008
-5.039575e-008
-3.712395e-008
-2.604228e-008
-1.717234e-008
-1.039526e-008
-5.485051e-009
-2.148081e-009
-6.277968e-011
1.085887e-009
1.580753e-009
1.657211e-009
1.497729e-009
1.233721e-009
9.517662e-010
7.014177e-010
5.031706e-010
3.564473e-010
2.481925e-010
1.623052e-010
8.855273e-011
2.775948e-011
-1.045678e-011
-1.769876e-011
1.666477e-012
2.784944e-011
3.731036e-011
2.094582e-011
-8.188093e-012
-2.679271e-011
-2.244952e-011
-3.229297e-012
1.257008e-011
1.416834e-011
5.270443e-012
-3.598741e-012
-6.136819e-012
-3.551894e-012
-1.871204e-013
1.463999e-012
1.723287e-012
-4.304309e-010
-3.454323e-010
-1.008195e-010
2.713398e-010
5.148449e-010
3.231066e-010
-2.903707e-010
-8.382237e-010
-7.236807e-010
1.332060e-010
1.073472e-009
1.230428e-009
3.584883e-010
-8.805078e-010
-1.486609e-009
-9.887099e-010
2.092269e-010
1.250084e-009
1.538528e-009
1.115111e-009
4.817330e-010
1.562386e-010
3.518078e-010
9.504410e-010
1.669022e-009
2.225055e-009
2.391359e-009
1.950609e-009
6.192167e-010
-2.002169e-009
-6.433126e-009
-1.328124e-008
-2.318792e-008
-3.676257e-008
-5.451087e-008
-7.676309e-008
-1.036099e-007
-1.348554e-007
-1.699949e-007
-2.082218e-007