# vtk DataFile Version 3.0
vtk output
ASCII
DATASET STRUCTURED_POINTS
DIMENSIONS 100 100 1
SPACING 1 1 1
ORIGIN 0 0 0
POINT_DATA 10000
SCALARS SFBox_profile double
LOOKUP_TABLE default 
9.439922e-003
9.439921e-003
9.439919e-003
9.439918e-003
9.439918e-003
9.439920e-003
9.439921e-003
9.439922e-003
9.439922e-003
9.439920e-003
9.439919e-003
9.439918e-003
9.439918e-003
9.439919e-003
9.439920e-003
9.439921e-003
9.439921e-003
9.439921e-003
9.439921e-003
9.439921e-003
9.439920e-003
9.439920e-003
9.439919e-003
9.439918e-003
9.439918e-003
9.439919e-003
9.439919e-003
9.439919e-003
9.439920e-003
9.439920e-003
9.439921e-003
9.439921e-003
9.439922e-003
9.439922e-003
9.439922e-003
9.439922e-003
9.439923e-003
9.439923e-003
9.439923e-003
9.439923e-003
9.439923e-003
9.439923e-003
9.439923e-003
9.439923e-003
9.439923e-003
9.439923e-003
9.439923e-003
9.439923e-003
9.439923e-003
9.439923e-003
9.439922e-003
9.439922e-003
9.439922e-003
9.439922e-003
9.439922e-003
9.439922e-003
9.439922e-003
9.439922e-003
9.439922e-003
9.439922e-003
9.439922e-003
9.439922e-003
9.439922e-003
9.439922e-003
9.439922e-003
9.439922e-003
9.439922e-003
9.439922e-003
9.439922e-003
9.439921e-003
9.439921e-003
9.439921e-003
9.439920e-003
9.439920e-003
9.439919e-003
9.439919e-003
9.439919e-003
9.439919e-003
9.439919e-003
9.439920e-003
9.439920e-003
9.439920e-003
9.439920e-003
9.439921e-003
9.439921e-003
9.439921e-003
9.439920e-003
9.439919e-003
9.439919e-003
9.439919e-003
9.439920e-003
9.439920e-003
9.439921e-003
9.439921e-003
9.439920e-003
9.439920e-003
9.439920e-003
9.439920e-003
9.439920e-003
9.439920e-003
9.439922e-003
9.439921e-003
9.439919e-003
9.439918e-003
9.439918e-003
9.439920e-003
9.439921e-003
9.439922e-003
9.439922e-003
9.439920e-003
9.439919e-003
9.439918e-003
9.439918e-003
9.439919e-003
9.439920e-003
9.439921e-003
9.439921e-003
9.439921e-003
9.439921e-003
9.439921e-003
9.439920e-003
9.439920e-003
9.439919e-003
9.439918e-003
9.439918e-003
9.439919e-003
9.439919e-003
9.439919e-003
9.439920e-003
9.439920e-003
9.439921e-003
9.439921e-003
9.439922e-003
9.439922e-003
9.439922e-003
9.439922e-003
9.439923e-003
9.439923e-003
9.439923e-003
9.439923e-003
9.439923e-003
9.439923e-003
9.439923e-003
9.439923e-003
9.439923e-003
9.439923e-003
9.439923e-003
9.439923e-003
9.439923e-003
9.439923e-003
9.439922e-003
9.439922e-003
9.439922e-003
9.439922e-003
9.439922e-003
9.439922e-003
9.439922e-003
9.439922e-003
9.439922e-003
9.439922e-003
9.439922e-003
9.439922e-003
9.439922e-003
9.439922e-003
9.439922e-003
9.439922e-003
9.439922e-003
9.439922e-003
9.439922e-003
9.439921e-003
9.439921e-003
9.439921e-003
9.439920e-003
9.439920e-003
9.439919e-003
9.439919e-003
9.439919e-003
9.439919e-003
9.439919e-003
9.439920e-003
9.439920e-003
9.439920e-003
9.439920e-003
9.439921e-003
9.439921e-003
9.439921e-003
9.439920e-003
9.439919e-003
9.439919e-003
9.439919e-003
9.439920e-003
9.439920e-003
9.439921e-003
9.439921e-003
9.439920e-003
9.439920e-003
9.439920e-003
9.439920e-003
9.439920e-003
9.439920e-003
9.439920e-003
9.439920e-003
9.439920e-003
9.439920e-003
9.439920e-003
9.439920e-003
9.439920e-003
9.439920e-003
9.439920e-003
9.439920e-003
9.439920e-003
9.439920e-003
9.439920e-003
9.439920e-003
9.439920e-003
9.439920e-003
9.439920e-003
9.439919e-003
9.439920e-003
9.439920e-003
9.439920e-003
9.439920e-003
9.439920e-003
9.439920e-003
9.439921e-003
9.439921e-003
9.439921e-003
9.439921e-003
9.439920e-003
9.439920e-003
9.439920e-003
9.439920e-003
9.439920e-003
9.439920e-003
9.439920e-003
9.439920e-003
9.439920e-003
9.439921e-003
9.439921e-003
9.439921e-003
9.439921e-003
9.439921e-003
9.439921e-003
9.439922e-003
9.439922e-003
9.439922e-003
9.439922e-003
9.439922e-003
9.439922e-003
9.439923e-003
9.439923e-003
9.439923e-003
9.439923e-003
9.439923e-003
9.439923e-003
9.439922e-003
9.439922e-003
9.439922e-003
9.439922e-003
9.439922e-003
9.439922e-003
9.439921e-003
9.439921e-003
9.439921e-003
9.439921e-003
9.439920e-003
9.439920e-003
9.439920e-003
9.439920e-003
9.439920e-003
9.439920e-003
9.439920e-003
9.439920e-003
9.439920e-003
9.439920e-003
9.439920e-003
9.439920e-003
9.439920e-003
9.439920e-003
9.439920e-003
9.439920e-003
9.439920e-003
9.439920e-003
9.439920e-003
9.439920e-003
9.439920e-003
9.439920e-003
9.439920e-003
9.439920e-003
9.439920e-003
9.439920e-003
9.439920e-003
9.439920e-003
9.439920e-003
9.439920e-003
9.439920e-003
9.439920e-003
9.439920e-003
9.439920e-003
9.439920e-003
9.439918e-003
9.439919e-003
9.439921e-003
9.439922e-003
9.439921e-003
9.439920e-003
9.439919e-003
9.439918e-003
9.439919e-003
9.439920e-003
9.439921e-003
9.439922e-003
9.439922e-003
9.439921e-003
9.439920e-003
9.439919e-003
9.439919e-003
9.439918e-003
9.439918e-003
9.439919e-003
9.439920e-003
9.439921e-003
9.439921e-003
9.439922e-003
9.439922e-003
9.439922e-003
9.439922e-003
9.439922e-003
9.439921e-003
9.439921e-003
9.439920e-003
9.439920e-003
9.439920e-003
9.439920e-003
9.439920e-003
9.439920e-003
9.439920e-003
9.439920e-003
9.439921e-003
9.439921e-003
9.439922e-003
9.439922e-003
9.439923e-003
9.439923e-003
9.439923e-003
9.439924e-003
9.439924e-003
9.439924e-003
9.439925e-003
9.439925e-003
9.439925e-003
9.439925e-003
9.439925e-003
9.439925e-003
9.439925e-003
9.439925e-003
9.439924e-003
9.439924e-003
9.439924e-003
9.439923e-003
9.439923e-003
9.439922e-003
9.439922e-003
9.439921e-003
9.439921e-003
9.439921e-003
9.439920e-003
9.439920e-003
9.439920e-003
9.439920e-003
9.439920e-003
9.439920e-003
9.439920e-003
9.439921e-003
9.439921e-003
9.439921e-003
9.439921e-003
9.439921e-003
9.439921e-003
9.439921e-003
9.439920e-003
9.439920e-003
9.439919e-003
9.439919e-003
9.439919e-003
9.439919e-003
9.439920e-003
9.439921e-003
9.439921e-003
9.439921e-003
9.439920e-003
9.439920e-003
9.439919e-003
9.439919e-003
9.439920e-003
9.439920e-003
9.439921e-003
9.439920e-003
9.439920e-003
9.439920e-003
9.439917e-003
9.439919e-003
9.439921e-003
9.439923e-003
9.439922e-003
9.439920e-003
9.439918e-003
9.439918e-003
9.439918e-003
9.439920e-003
9.439921e-003
9.439922e-003
9.439921e-003
9.439920e-003
9.439919e-003
9.439919e-003
9.439919e-003
9.439919e-003
9.439919e-003
9.439920e-003
9.439920e-003
9.439921e-003
9.439921e-003
9.439921e-003
9.439921e-003
9.439921e-003
9.439921e-003
9.439921e-003
9.439921e-003
9.439921e-003
9.439921e-003
9.439922e-003
9.439922e-003
9.439923e-003
9.439923e-003
9.439924e-003
9.439924e-003
9.439925e-003
9.439926e-003
9.439926e-003
9.439927e-003
9.439928e-003
9.439928e-003
9.439929e-003
9.439929e-003
9.439930e-003
9.439930e-003
9.439930e-003
9.439930e-003
9.439931e-003
9.439931e-003
9.439931e-003
9.439931e-003
9.439931e-003
9.439930e-003
9.439930e-003
9.439930e-003
9.439929e-003
9.439929e-003
9.439928e-003
9.439928e-003
9.439927e-003
9.439926e-003
9.439926e-003
9.439925e-003
9.439924e-003
9.439924e-003
9.439923e-003
9.439922e-003
9.439922e-003
9.439921e-003
9.439921e-003
9.439921e-003
9.439921e-003
9.439921e-003
9.439921e-003
9.439921e-003
9.439921e-003
9.439921e-003
9.439920e-003
9.439920e-003
9.439920e-003
9.439920e-003
9.439919e-003
9.439919e-003
9.439919e-003
9.439920e-003
9.439921e-003
9.439921e-003
9.439921e-003
9.439920e-003
9.439920e-003
9.439919e-003
9.439919e-003
9.439920e-003
9.439920e-003
9.439921e-003
9.439920e-003
9.439920e-003
9.439920e-003
9.439919e-003
9.439919e-003
9.439920e-003
9.439921e-003
9.439921e-003
9.439920e-003
9.439919e-003
9.439919e-003
9.439920e-003
9.439920e-003
9.439921e-003
9.439920e-003
9.439920e-003
9.439919e-003
9.439919e-003
9.439920e-003
9.439921e-003
9.439921e-003
9.439921e-003
9.439921e-003
9.439920e-003
9.439920e-003
9.439920e-003
9.439920e-003
9.439919e-003
9.439920e-003
9.439920e-003
9.439921e-003
9.439922e-003
9.439923e-003
9.439924e-003
9.439925e-003
9.439927e-003
9.439928e-003
9.439929e-003
9.439930e-003
9.439931e-003
9.439932e-003
9.439933e-003
9.439934e-003
9.439935e-003
9.439936e-003
9.439936e-003
9.439937e-003
9.439937e-003
9.439938e-003
9.439938e-003
9.439938e-003
9.439938e-003
9.439938e-003
9.439938e-003
9.439938e-003
9.439938e-003
9.439938e-003
9.439938e-003
9.439937e-003
9.439937e-003
9.439936e-003
9.439936e-003
9.439935e-003
9.439935e-003
9.439934e-003
9.439933e-003
9.439932e-003
9.439931e-003
9.439930e-003
9.439929e-003
9.439928e-003
9.439927e-003
9.439926e-003
9.439925e-003
9.439924e-003
9.439922e-003
9.439921e-003
9.439921e-003
9.439920e-003
9.439920e-003
9.439920e-003
9.439920e-003
9.439920e-003
9.439920e-003
9.439921e-003
9.439921e-003
9.439921e-003
9.439920e-003
9.439920e-003
9.439920e-003
9.439920e-003
9.439920e-003
9.439920e-003
9.439920e-003
9.439920e-003
9.439920e-003
9.439920e-003
9.439920e-003
9.439920e-003
9.439920e-003
9.439920e-003
9.439920e-003
9.439920e-003
9.439922e-003
9.439920e-003
9.439919e-003
9.439918e-003
9.439919e-003
9.439920e-003
9.439921e-003
9.439921e-003
9.439921e-003
9.439920e-003
9.439919e-003
9.439919e-003
9.439918e-003
9.439919e-003
9.439919e-003
9.439921e-003
9.439922e-003
9.439922e-003
9.439922e-003
9.439921e-003
9.439920e-003
9.439920e-003
9.439920e-003
9.439920e-003
9.439920e-003
9.439921e-003
9.439922e-003
9.439923e-003
9.439925e-003
9.439926e-003
9.439928e-003
9.439930e-003
9.439931e-003
9.439933e-003
9.439935e-003
9.439936e-003
9.439937e-003
9.439939e-003
9.439940e-003
9.439941e-003
9.439942e-003
9.439942e-003
9.439943e-003
9.439944e-003
9.439944e-003
9.439945e-003
9.439945e-003
9.439945e-003
9.439945e-003
9.439945e-003
9.439945e-003
9.439945e-003
9.439945e-003
9.439945e-003
9.439944e-003
9.439944e-003
9.439943e-003
9.439943e-003
9.439942e-003
9.439942e-003
9.439941e-003
9.439940e-003
9.439939e-003
9.439938e-003
9.439937e-003
9.439936e-003
9.439934e-003
9.439933e-003
9.439931e-003
9.439930e-003
9.439928e-003
9.439927e-003
9.439925e-003
9.439923e-003
9.439922e-003
9.439921e-003
9.439921e-003
9.439920e-003
9.439919e-003
9.439920e-003
9.439920e-003
9.439921e-003
9.439921e-003
9.439921e-003
9.439921e-003
9.439920e-003
9.439920e-003
9.439919e-003
9.439919e-003
9.439919e-003
9.439919e-003
9.439920e-003
9.439921e-003
9.439921e-003
9.439920e-003
9.439920e-003
9.439919e-003
9.439919e-003
9.439920e-003
9.439920e-003
9.439923e-003
9.439921e-003
9.439918e-003
9.439917e-003
9.439918e-003
9.439920e-003
9.439922e-003
9.439922e-003
9.439921e-003
9.439920e-003
9.439919e-003
9.439919e-003
9.439919e-003
9.439920e-003
9.439920e-003
9.439921e-003
9.439921e-003
9.439921e-003
9.439921e-003
9.439920e-003
9.439920e-003
9.439921e-003
9.439922e-003
9.439923e-003
9.439924e-003
9.439925e-003
9.439927e-003
9.439928e-003
9.439930e-003
9.439931e-003
9.439933e-003
9.439935e-003
9.439936e-003
9.439938e-003
9.439939e-003
9.439941e-003
9.439942e-003
9.439943e-003
9.439944e-003
9.439945e-003
9.439945e-003
9.439945e-003
9.439945e-003
9.439945e-003
9.439945e-003
9.439945e-003
9.439945e-003
9.439944e-003
9.439944e-003
9.439944e-003
9.439943e-003
9.439943e-003
9.439943e-003
9.439942e-003
9.439942e-003
9.439942e-003
9.439942e-003
9.439942e-003
9.439942e-003
9.439943e-003
9.439943e-003
9.439942e-003
9.439942e-003
9.439941e-003
9.439941e-003
9.439940e-003
9.439938e-003
9.439937e-003
9.439935e-003
9.439934e-003
9.439932e-003
9.439930e-003
9.439929e-003
9.439927e-003
9.439926e-003
9.439925e-003
9.439923e-003
9.439922e-003
9.439921e-003
9.439921e-003
9.439920e-003
9.439920e-003
9.439920e-003
9.439921e-003
9.439921e-003
9.439921e-003
9.439920e-003
9.439920e-003
9.439919e-003
9.439919e-003
9.439919e-003
9.439920e-003
9.439921e-003
9.439921e-003
9.439920e-003
9.439920e-003
9.439919e-003
9.439919e-003
9.439920e-003
9.439921e-003
9.439923e-003
9.439921e-003
9.439919e-003
9.439918e-003
9.439919e-003
9.439920e-003
9.439921e-003
9.439921e-003
9.439920e-003
9.439919e-003
9.439919e-003
9.439920e-003
9.439921e-003
9.439921e-003
9.439921e-003
9.439920e-003
9.439919e-003
9.439919e-003
9.439919e-003
9.439920e-003
9.439921e-003
9.439923e-003
9.439925e-003
9.439927e-003
9.439929e-003
9.439930e-003
9.439932e-003
9.439934e-003
9.439936e-003
9.439938e-003
9.439940e-003
9.439941e-003
9.439942e-003
9.439943e-003
9.439944e-003
9.439944e-003
9.439943e-003
9.439942e-003
9.439940e-003
9.439938e-003
9.439935e-003
9.439932e-003
9.439929e-003
9.439926e-003
9.439922e-003
9.439919e-003
9.439915e-003
9.439913e-003
9.439910e-003
9.439908e-003
9.439906e-003
9.439905e-003
9.439905e-003
9.439905e-003
9.439906e-003
9.439908e-003
9.439910e-003
9.439913e-003
9.439917e-003
9.439921e-003
9.439925e-003
9.439928e-003
9.439932e-003
9.439935e-003
9.439938e-003
9.439939e-003
9.439940e-003
9.439940e-003
9.439940e-003
9.439939e-003
9.439937e-003
9.439936e-003
9.439934e-003
9.439932e-003
9.439930e-003
9.439929e-003
9.439927e-003
9.439925e-003
9.439924e-003
9.439923e-003
9.439921e-003
9.439920e-003
9.439919e-003
9.439919e-003
9.439920e-003
9.439920e-003
9.439921e-003
9.439921e-003
9.439920e-003
9.439920e-003
9.439920e-003
9.439920e-003
9.439920e-003
9.439920e-003
9.439920e-003
9.439920e-003
9.439919e-003
9.439920e-003
9.439920e-003
9.439920e-003
9.439920e-003
9.439920e-003
9.439920e-003
9.439920e-003
9.439920e-003
9.439920e-003
9.439920e-003
9.439919e-003
9.439919e-003
9.439919e-003
9.439920e-003
9.439921e-003
9.439922e-003
9.439922e-003
9.439921e-003
9.439920e-003
9.439919e-003
9.439919e-003
9.439920e-003
9.439922e-003
9.439924e-003
9.439926e-003
9.439928e-003
9.439930e-003
9.439933e-003
9.439935e-003
9.439938e-003
9.439940e-003
9.439942e-003
9.439944e-003
9.439945e-003
9.439945e-003
9.439944e-003
9.439941e-003
9.439936e-003
9.439930e-003
9.439921e-003
9.439911e-003
9.439899e-003
9.439886e-003
9.439873e-003
9.439858e-003
9.439844e-003
9.439829e-003
9.439815e-003
9.439802e-003
9.439790e-003
9.439779e-003
9.439769e-003
9.439762e-003
9.439757e-003
9.439754e-003
9.439754e-003
9.439756e-003
9.439761e-003
9.439768e-003
9.439778e-003
9.439790e-003
9.439805e-003
9.439821e-003
9.439838e-003
9.439855e-003
9.439872e-003
9.439888e-003
9.439902e-003
9.439915e-003
9.439925e-003
9.439932e-003
9.439937e-003
9.439940e-003
9.439941e-003
9.439941e-003
9.439939e-003
9.439937e-003
9.439935e-003
9.439933e-003
9.439930e-003
9.439928e-003
9.439926e-003
9.439925e-003
9.439923e-003
9.439921e-003
9.439920e-003
9.439919e-003
9.439920e-003
9.439920e-003
9.439921e-003
9.439921e-003
9.439921e-003
9.439920e-003
9.439920e-003
9.439920e-003
9.439920e-003
9.439919e-003
9.439920e-003
9.439920e-003
9.439920e-003
9.439920e-003
9.439920e-003
9.439920e-003
9.439917e-003
9.439919e-003
9.439922e-003
9.439922e-003
9.439922e-003
9.439920e-003
9.439919e-003
9.439918e-003
9.439919e-003
9.439920e-003
9.439921e-003
9.439921e-003
9.439921e-003
9.439921e-003
9.439920e-003
9.439920e-003
9.439921e-003
9.439922e-003
9.439924e-003
9.439926e-003
9.439928e-003
9.439930e-003
9.439932e-003
9.439934e-003
9.439937e-003
9.439941e-003
9.439943e-003
9.439945e-003
9.439946e-003
9.439944e-003
9.439939e-003
9.439931e-003
9.439917e-003
9.439899e-003
9.439876e-003
9.439848e-003
9.439815e-003
9.439778e-003
9.439738e-003
9.439694e-003
9.439649e-003
9.439604e-003
9.439558e-003
9.439514e-003
9.439472e-003
9.439433e-003
9.439398e-003
9.439367e-003
9.439340e-003
9.439320e-003
9.439306e-003
9.439299e-003
9.439298e-003
9.439306e-003
9.439321e-003
9.439344e-003
9.439374e-003
9.439411e-003
9.439454e-003
9.439503e-003
9.439555e-003
9.439608e-003
9.439662e-003
9.439714e-003
9.439762e-003
9.439806e-003
9.439844e-003
9.439876e-003
9.439900e-003
9.439918e-003
9.439930e-003
9.439938e-003
9.439941e-003
9.439941e-003
9.439940e-003
9.439937e-003
9.439934e-003
9.439931e-003
9.439929e-003
9.439927e-003
9.439926e-003
9.439924e-003
9.439922e-003
9.439921e-003
9.439921e-003
9.439920e-003
9.439920e-003
9.439920e-003
9.439921e-003
9.439921e-003
9.439921e-003
9.439920e-003
9.439919e-003
9.439919e-003
9.439919e-003
9.439920e-003
9.439921e-003
9.439921e-003
9.439920e-003
9.439919e-003
9.439916e-003
9.439919e-003
9.439922e-003
9.439923e-003
9.439921e-003
9.439919e-003
9.439918e-003
9.439919e-003
9.439920e-003
9.439921e-003
9.439921e-003
9.439920e-003
9.439919e-003
9.439919e-003
9.439920e-003
9.439922e-003
9.439923e-003
9.439925e-003
9.439928e-003
9.439930e-003
9.439932e-003
9.439935e-003
9.439938e-003
9.439941e-003
9.439944e-003
9.439946e-003
9.439946e-003
9.439941e-003
9.439931e-003
9.439913e-003
9.439887e-003
9.439849e-003
9.439800e-003
9.439738e-003
9.439664e-003
9.439578e-003
9.439480e-003
9.439373e-003
9.439259e-003
9.439139e-003
9.439017e-003
9.438894e-003
9.438774e-003
9.438658e-003
9.438549e-003
9.438448e-003
9.438357e-003
9.438278e-003
9.438213e-003
9.438162e-003
9.438127e-003
9.438110e-003
9.438111e-003
9.438131e-003
9.438171e-003
9.438231e-003
9.438310e-003
9.438407e-003
9.438521e-003
9.438648e-003
9.438785e-003
9.438928e-003
9.439073e-003
9.439215e-003
9.439350e-003
9.439475e-003
9.439586e-003
9.439681e-003
9.439759e-003
9.439821e-003
9.439868e-003
9.439901e-003
9.439922e-003
9.439935e-003
9.439940e-003
9.439941e-003
9.439939e-003
9.439937e-003
9.439934e-003
9.439931e-003
9.439929e-003
9.439927e-003
9.439925e-003
9.439924e-003
9.439922e-003
9.439921e-003
9.439920e-003
9.439919e-003
9.439920e-003
9.439920e-003
9.439921e-003
9.439920e-003
9.439920e-003
9.439919e-003
9.439920e-003
9.439920e-003
9.439921e-003
9.439921e-003
9.439920e-003
9.439919e-003
9.439918e-003
9.439920e-003
9.439921e-003
9.439921e-003
9.439920e-003
9.439919e-003
9.439919e-003
9.439920e-003
9.439921e-003
9.439922e-003
9.439921e-003
9.439919e-003
9.439919e-003
9.439919e-003
9.439921e-003
9.439924e-003
9.439926e-003
9.439928e-003
9.439931e-003
9.439934e-003
9.439938e-003
9.439942e-003
9.439946e-003
9.439948e-003
9.439947e-003
9.439941e-003
9.439926e-003
9.439898e-003
9.439855e-003
9.439791e-003
9.439704e-003
9.439591e-003
9.439448e-003
9.439276e-003
9.439075e-003
9.438846e-003
9.438593e-003
9.438320e-003
9.438032e-003
9.437734e-003
9.437433e-003
9.437134e-003
9.436842e-003
9.436564e-003
9.436303e-003
9.436063e-003
9.435849e-003
9.435664e-003
9.435511e-003
9.435394e-003
9.435314e-003
9.435275e-003
9.435280e-003
9.435329e-003
9.435426e-003
9.435569e-003
9.435757e-003
9.435990e-003
9.436262e-003
9.436567e-003
9.436899e-003
9.437247e-003
9.437603e-003
9.437955e-003
9.438294e-003
9.438610e-003
9.438896e-003
9.439147e-003
9.439359e-003
9.439531e-003
9.439667e-003
9.439768e-003
9.439841e-003
9.439889e-003
9.439919e-003
9.439934e-003
9.439941e-003
9.439942e-003
9.439940e-003
9.439936e-003
9.439933e-003
9.439930e-003
9.439928e-003
9.439926e-003
9.439924e-003
9.439922e-003
9.439920e-003
9.439919e-003
9.439919e-003
9.439920e-003
9.439921e-003
9.439921e-003
9.439920e-003
9.439920e-003
9.439920e-003
9.439920e-003
9.439920e-003
9.439920e-003
9.439920e-003
9.439920e-003
9.439921e-003
9.439921e-003
9.439920e-003
9.439919e-003
9.439919e-003
9.439919e-003
9.439920e-003
9.439921e-003
9.439921e-003
9.439921e-003
9.439921e-003
9.439920e-003
9.439920e-003
9.439922e-003
9.439924e-003
9.439927e-003
9.439929e-003
9.439932e-003
9.439935e-003
9.439940e-003
9.439945e-003
9.439949e-003
9.439950e-003
9.439943e-003
9.439926e-003
9.439892e-003
9.439834e-003
9.439744e-003
9.439614e-003
9.439436e-003
9.439201e-003
9.438905e-003
9.438543e-003
9.438113e-003
9.437620e-003
9.437067e-003
9.436464e-003
9.435820e-003
9.435148e-003
9.434460e-003
9.433770e-003
9.433090e-003
9.432432e-003
9.431807e-003
9.431225e-003
9.430694e-003
9.430222e-003
9.429816e-003
9.429482e-003
9.429226e-003
9.429055e-003
9.428973e-003
9.428986e-003
9.429098e-003
9.429313e-003
9.429631e-003
9.430051e-003
9.430569e-003
9.431176e-003
9.431861e-003
9.432608e-003
9.433399e-003
9.434211e-003
9.435023e-003
9.435811e-003
9.436554e-003
9.437234e-003
9.437838e-003
9.438357e-003
9.438788e-003
9.439134e-003
9.439401e-003
9.439598e-003
9.439738e-003
9.439831e-003
9.439889e-003
9.439922e-003
9.439938e-003
9.439943e-003
9.439942e-003
9.439938e-003
9.439934e-003
9.439931e-003
9.439928e-003
9.439926e-003
9.439924e-003
9.439922e-003
9.439921e-003
9.439920e-003
9.439920e-003
9.439920e-003
9.439920e-003
9.439921e-003
9.439921e-003
9.439920e-003
9.439920e-003
9.439919e-003
9.439919e-003
9.439920e-003
9.439921e-003
9.439923e-003
9.439921e-003
9.439919e-003
9.439918e-003
9.439919e-003
9.439920e-003
9.439921e-003
9.439921e-003
9.439920e-003
9.439920e-003
9.439920e-003
9.439921e-003
9.439923e-003
9.439925e-003
9.439927e-003
9.439930e-003
9.439933e-003
9.439937e-003
9.439942e-003
9.439947e-003
9.439950e-003
9.439947e-003
9.439932e-003
9.439898e-003
9.439833e-003
9.439726e-003
9.439561e-003
9.439321e-003
9.438986e-003
9.438541e-003
9.437970e-003
9.437262e-003
9.436411e-003
9.435418e-003
9.434291e-003
9.433045e-003
9.431700e-003
9.430280e-003
9.428813e-003
9.427326e-003
9.425847e-003
9.424403e-003
9.423016e-003
9.421708e-003
9.420497e-003
9.419399e-003
9.418428e-003
9.417597e-003
9.416917e-003
9.416400e-003
9.416056e-003
9.415895e-003
9.415929e-003
9.416165e-003
9.416611e-003
9.417269e-003
9.418137e-003
9.419211e-003
9.420474e-003
9.421906e-003
9.423478e-003
9.425154e-003
9.426889e-003
9.428638e-003
9.430353e-003
9.431988e-003
9.433501e-003
9.434861e-003
9.436046e-003
9.437044e-003
9.437858e-003
9.438498e-003
9.438983e-003
9.439335e-003
9.439580e-003
9.439742e-003
9.439843e-003
9.439901e-003
9.439930e-003
9.439941e-003
9.439943e-003
9.439940e-003
9.439936e-003
9.439932e-003
9.439928e-003
9.439926e-003
9.439924e-003
9.439923e-003
9.439922e-003
9.439920e-003
9.439920e-003
9.439920e-003
9.439920e-003
9.439921e-003
9.439921e-003
9.439920e-003
9.439919e-003
9.439919e-003
9.439920e-003
9.439921e-003
9.439923e-003
9.439920e-003
9.439918e-003
9.439918e-003
9.439920e-003
9.439922e-003
9.439922e-003
9.439920e-003
9.439919e-003
9.439919e-003
9.439921e-003
9.439923e-003
9.439926e-003
9.439928e-003
9.439931e-003
9.439935e-003
9.439940e-003
9.439945e-003
9.439950e-003
9.439951e-003
9.439942e-003
9.439915e-003
9.439856e-003
9.439748e-003
9.439568e-003
9.439289e-003
9.438877e-003
9.438295e-003
9.437507e-003
9.436478e-003
9.435181e-003
9.433597e-003
9.431723e-003
9.429567e-003
9.427155e-003
9.424523e-003
9.421718e-003
9.418796e-003
9.415813e-003
9.412825e-003
9.409888e-003
9.407049e-003
9.404351e-003
9.401830e-003
9.399518e-003
9.397438e-003
9.395614e-003
9.394064e-003
9.392805e-003
9.391856e-003
9.391234e-003
9.390955e-003
9.391037e-003
9.391495e-003
9.392342e-003
9.393587e-003
9.395231e-003
9.397266e-003
9.399674e-003
9.402422e-003
9.405463e-003
9.408736e-003
9.412164e-003
9.415661e-003
9.419134e-003
9.422490e-003
9.425640e-003
9.428511e-003
9.431049e-003
9.433220e-003
9.435016e-003
9.436452e-003
9.437558e-003
9.438379e-003
9.438963e-003
9.439362e-003
9.439621e-003
9.439780e-003
9.439871e-003
9.439918e-003
9.439938e-003
9.439943e-003
9.439941e-003
9.439937e-003
9.439932e-003
9.439929e-003
9.439927e-003
9.439925e-003
9.439923e-003
9.439921e-003
9.439920e-003
9.439919e-003
9.439920e-003
9.439921e-003
9.439921e-003
9.439920e-003
9.439919e-003
9.439919e-003
9.439920e-003
9.439921e-003
9.439922e-003
9.439920e-003
9.439918e-003
9.439919e-003
9.439921e-003
9.439922e-003
9.439922e-003
9.439920e-003
9.439919e-003
9.439919e-003
9.439922e-003
9.439926e-003
9.439929e-003
9.439931e-003
9.439935e-003
9.439941e-003
9.439948e-003
9.439953e-003
9.439951e-003
9.439935e-003
9.439892e-003
9.439802e-003
9.439637e-003
9.439359e-003
9.438921e-003
9.438261e-003
9.437313e-003
9.436004e-003
9.434263e-003
9.432028e-003
9.429257e-003
9.425931e-003
9.422060e-003
9.417684e-003
9.412872e-003
9.407716e-003
9.402324e-003
9.396808e-003
9.391282e-003
9.385850e-003
9.380605e-003
9.375625e-003
9.370972e-003
9.366695e-003
9.362832e-003
9.359410e-003
9.356452e-003
9.353975e-003
9.351997e-003
9.350534e-003
9.349604e-003
9.349228e-003
9.349425e-003
9.350219e-003
9.351630e-003
9.353678e-003
9.356374e-003
9.359723e-003
9.363716e-003
9.368323e-003
9.373496e-003
9.379158e-003
9.385202e-003
9.391495e-003
9.397880e-003
9.404182e-003
9.410227e-003
9.415853e-003
9.420924e-003
9.425346e-003
9.429073e-003
9.432103e-003
9.434479e-003
9.436273e-003
9.437575e-003
9.438482e-003
9.439088e-003
9.439474e-003
9.439706e-003
9.439837e-003
9.439904e-003
9.439934e-003
9.439944e-003
9.439943e-003
9.439938e-003
9.439933e-003
9.439929e-003
9.439927e-003
9.439925e-003
9.439923e-003
9.439920e-003
9.439920e-003
9.439920e-003
9.439921e-003
9.439921e-003
9.439920e-003
9.439920e-003
9.439919e-003
9.439920e-003
9.439920e-003
9.439920e-003
9.439919e-003
9.439919e-003
9.439920e-003
9.439921e-003
9.439922e-003
9.439921e-003
9.439920e-003
9.439920e-003
9.439922e-003
9.439925e-003
9.439929e-003
9.439932e-003
9.439936e-003
9.439941e-003
9.439948e-003
9.439954e-003
9.439950e-003
9.439927e-003
9.439866e-003
9.439740e-003
9.439507e-003
9.439108e-003
9.438465e-003
9.437476e-003
9.436024e-003
9.433977e-003
9.431201e-003
9.427576e-003
9.423012e-003
9.417465e-003
9.410948e-003
9.403542e-003
9.395386e-003
9.386670e-003
9.377614e-003
9.368452e-003
9.359404e-003
9.350668e-003
9.342405e-003
9.334736e-003
9.327743e-003
9.321471e-003
9.315941e-003
9.311149e-003
9.307083e-003
9.303722e-003
9.301043e-003
9.299023e-003
9.297644e-003
9.296892e-003
9.296758e-003
9.297244e-003
9.298359e-003
9.300124e-003
9.302575e-003
9.305756e-003
9.309727e-003
9.314547e-003
9.320275e-003
9.326951e-003
9.334578e-003
9.343108e-003
9.352422e-003
9.362326e-003
9.372555e-003
9.382788e-003
9.392684e-003
9.401921e-003
9.410229e-003
9.417423e-003
9.423416e-003
9.428217e-003
9.431913e-003
9.434648e-003
9.436590e-003
9.437914e-003
9.438776e-003
9.439312e-003
9.439628e-003
9.439803e-003
9.439892e-003
9.439931e-003
9.439943e-003
9.439943e-003
9.439938e-003
9.439933e-003
9.439929e-003
9.439926e-003
9.439924e-003
9.439922e-003
9.439921e-003
9.439920e-003
9.439920e-003
9.439920e-003
9.439920e-003
9.439920e-003
9.439920e-003
9.439920e-003
9.439920e-003
9.439919e-003
9.439920e-003
9.439921e-003
9.439921e-003
9.439921e-003
9.439920e-003
9.439920e-003
9.439921e-003
9.439922e-003
9.439925e-003
9.439928e-003
9.439932e-003
9.439936e-003
9.439942e-003
9.439949e-003
9.439954e-003
9.439949e-003
9.439919e-003
9.439842e-003
9.439678e-003
9.439371e-003
9.438834e-003
9.437948e-003
9.436554e-003
9.434459e-003
9.431442e-003
9.427269e-003
9.421725e-003
9.414646e-003
9.405959e-003
9.395715e-003
9.384105e-003
9.371461e-003
9.358224e-003
9.344901e-003
9.332008e-003
9.320015e-003
9.309302e-003
9.300133e-003
9.292645e-003
9.286860e-003
9.282700e-003
9.280017e-003
9.278618e-003
9.278287e-003
9.278805e-003
9.279960e-003
9.281550e-003
9.283388e-003
9.285296e-003
9.287111e-003
9.288687e-003
9.289904e-003
9.290675e-003
9.290968e-003
9.290824e-003
9.290367e-003
9.289824e-003
9.289526e-003
9.289890e-003
9.291386e-003
9.294486e-003
9.299588e-003
9.306935e-003
9.316560e-003
9.328236e-003
9.341496e-003
9.355678e-003
9.370022e-003
9.383784e-003
9.396333e-003
9.407233e-003
9.416264e-003
9.423414e-003
9.428829e-003
9.432757e-003
9.435485e-003
9.437300e-003
9.438454e-003
9.439154e-003
9.439556e-003
9.439773e-003
9.439881e-003
9.439927e-003
9.439942e-003
9.439943e-003
9.439938e-003
9.439933e-003
9.439929e-003
9.439926e-003
9.439924e-003
9.439923e-003
9.439921e-003
9.439920e-003
9.439920e-003
9.439920e-003
9.439921e-003
9.439921e-003
9.439920e-003
9.439919e-003
9.439918e-003
9.439920e-003
9.439922e-003
9.439922e-003
9.439920e-003
9.439918e-003
9.439919e-003
9.439922e-003
9.439925e-003
9.439928e-003
9.439931e-003
9.439936e-003
9.439943e-003
9.439950e-003
9.439955e-003
9.439948e-003
9.439914e-003
9.439823e-003
9.439626e-003
9.439247e-003
9.438568e-003
9.437418e-003
9.435567e-003
9.432717e-003
9.428519e-003
9.422595e-003
9.414591e-003
9.404249e-003
9.391493e-003
9.376519e-003
9.359851e-003
9.342348e-003
9.325148e-003
9.309544e-003
9.296829e-003
9.288134e-003
9.284287e-003
9.285739e-003
9.292538e-003
9.304362e-003
9.320586e-003
9.340377e-003
9.362786e-003
9.386831e-003
9.411557e-003
9.436074e-003
9.459566e-003
9.481284e-003
9.500530e-003
9.516640e-003
9.528977e-003
9.536936e-003
9.539967e-003
9.537619e-003
9.529603e-003
9.515866e-003
9.496673e-003
9.472678e-003
9.444974e-003
9.415089e-003
9.384921e-003
9.356590e-003
9.332218e-003
9.313659e-003
9.302228e-003
9.298494e-003
9.302175e-003
9.312199e-003
9.326896e-003
9.344300e-003
9.362477e-003
9.379809e-003
9.395158e-003
9.407917e-003
9.417943e-003
9.425426e-003
9.430747e-003
9.434362e-003
9.436707e-003
9.438161e-003
9.439020e-003
9.439501e-003
9.439753e-003
9.439875e-003
9.439926e-003
9.439942e-003