# vtk DataFile Version 3.0
vtk output
ASCII
DATASET STRUCTURED_POINTS
DIMENSIONS 100 100 1
SPACING 1 1 1
ORIGIN 0 0 0
POINT_DATA 10000
SCALARS SFBox_profile double
LOOKUP_TABLE default 
0.000000e+000
0.000000e+000
0.000000e+000
0.000000e+000
0.000000e+000
0.000000e+000
0.000000e+000
0.000000e+000
0.000000e+000
0.000000e+000
0.000000e+000
0.000000e+000
0.000000e+000
0.000000e+000
0.000000e+000
0.000000e+000
0.000000e+000
0.000000e+000
0.000000e+000
0.000000e+000
0.000000e+000
0.000000e+000
0.000000e+000
0.000000e+000
0.000000e+000
0.000000e+000
0.000000e+000
0.000000e+000
0.000000e+000
0.000000e+000
0.000000e+000
0.000000e+000
0.000000e+000
0.000000e+000
0.000000e+000
0.000000e+000
0.000000e+000
0.000000e+000
0.000000e+000
0.000000e+000
0.000000e+000
0.000000e+000
0.000000e+000
0.000000e+000
0.000000e+000
0.000000e+000
0.000000e+000
0.000000e+000
0.000000e+000
0.000000e+000
0.000000e+000
0.000000e+000
0.000000e+000
0.000000e+000
0.000000e+000
0.000000e+000
0.000000e+000
0.000000e+000
0.000000e+000
0.000000e+000
0.000000e+000
0.000000e+000
0.000000e+000
0.000000e+000
0.000000e+000
0.000000e+000
0.000000e+000
0.000000e+000
0.000000e+000
0.000000e+000
0.000000e+000
0.000000e+000
0.000000e+000
0.000000e+000
0.000000e+000
0.000000e+000
0.000000e+000
0.000000e+000
0.000000e+000
0.000000e+000
0.000000e+000
0.000000e+000
0.000000e+000
0.000000e+000
0.000000e+000
0.000000e+000
0.000000e+000
0.000000e+000
0.000000e+000
0.000000e+000
0.000000e+000
0.000000e+000
0.000000e+000
0.000000e+000
0.000000e+000
0.000000e+000
0.000000e+000
0.000000e+000
0.000000e+000
0.000000e+000
1.138161e-008
4.283785e-009
-4.043732e-009
-8.236836e-009
-6.490205e-009
-1.053747e-009
3.966542e-009
5.669119e-009
3.989233e-009
9.563341e-010
-1.390192e-009
-2.465513e-009
-2.887297e-009
-3.161922e-009
-2.888818e-009
-1.313509e-009
1.496365e-009
4.265103e-009
5.436911e-009
4.486524e-009
2.266582e-009
9.655427e-011
-1.387058e-009
-2.461682e-009
-3.577838e-009
-4.628122e-009
-5.043708e-009
-4.487814e-009
-3.262106e-009
-1.978606e-009
-9.469270e-010
4.080585e-012
1.143856e-009
2.428380e-009
3.541074e-009
4.266056e-009
4.701592e-009
5.084408e-009
5.490969e-009
5.787830e-009
5.849052e-009
5.734123e-009
5.611977e-009
5.557977e-009
5.492717e-009
5.323104e-009
5.083918e-009
4.895438e-009
4.805223e-009
4.731786e-009
4.585563e-009
4.401967e-009
4.301743e-009
4.325745e-009
4.369828e-009
4.322607e-009
4.230885e-009
4.257137e-009
4.459551e-009
4.682932e-009
4.733393e-009
4.632252e-009
4.600610e-009
4.752935e-009
4.885189e-009
4.671119e-009
4.059511e-009
3.355711e-009
2.831028e-009
2.330344e-009
1.419131e-009
-4.323562e-011
-1.605268e-009
-2.629367e-009
-2.961935e-009
-3.039983e-009
-3.253697e-009
-3.327183e-009
-2.537191e-009
-6.133998e-010
1.707387e-009
3.187140e-009
3.177844e-009
2.133385e-009
1.007682e-009
2.456796e-010
-4.933661e-010
-1.605293e-009
-2.702395e-009
-2.724791e-009
-1.019565e-009
1.704310e-009
3.625403e-009
3.205926e-009
5.460754e-010
-2.526772e-009
-3.784973e-009
-2.299455e-009
8.346738e-010
3.306556e-009
1.401604e-009
3.732770e-010
-7.235814e-010
-1.036869e-009
-4.022684e-010
5.649536e-010
9.741909e-010
4.079865e-010
-6.906256e-010
-1.360689e-009
-9.476647e-010
3.082884e-010
1.469292e-009
1.711931e-009
9.926744e-010
-4.381638e-011
-7.561210e-010
-1.051435e-009
-1.255001e-009
-1.544105e-009
-1.646861e-009
-1.151493e-009
-3.809955e-011
1.207135e-009
2.030701e-009
2.297082e-009
2.290264e-009
2.288298e-009
2.241665e-009
1.903987e-009
1.196945e-009
3.426957e-010
-3.727150e-010
-8.863967e-010
-1.353992e-009
-1.898994e-009
-2.447980e-009
-2.836229e-009
-3.017225e-009
-3.105314e-009
-3.219835e-009
-3.347423e-009
-3.390160e-009
-3.315453e-009
-3.204630e-009
-3.147051e-009
-3.130846e-009
-3.074809e-009
-2.951219e-009
-2.829894e-009
-2.784308e-009
-2.789727e-009
-2.756745e-009
-2.659767e-009
-2.583738e-009
-2.614708e-009
-2.714943e-009
-2.759796e-009
-2.702938e-009
-2.649465e-009
-2.719425e-009
-2.866735e-009
-2.904179e-009
-2.728710e-009
-2.459412e-009
-2.284421e-009
-2.191620e-009
-1.941907e-009
-1.356404e-009
-5.698272e-010
9.221155e-011
4.875392e-010
8.126331e-010
1.314596e-009
1.900075e-009
2.148472e-009
1.760655e-009
9.243621e-010
1.474873e-010
-2.603187e-010
-4.505125e-010
-7.397011e-010
-1.125226e-009
-1.214112e-009
-6.776992e-010
2.852228e-010
1.026548e-009
1.022849e-009
3.582052e-010
-3.691253e-010
-6.005707e-010
-2.778235e-010
1.945877e-010
3.750553e-010
1.599277e-010
-2.001948e-010
-3.760834e-010
-2.358142e-010
9.058391e-011
3.475658e-010
-9.663261e-009
-3.793324e-009
3.166521e-009
6.875563e-009
5.829854e-009
1.645297e-009
-2.668420e-009
-4.872216e-009
-4.517939e-009
-2.474321e-009
1.476472e-010
2.593778e-009
4.340351e-009
4.826094e-009
3.618173e-009
8.933148e-010
-2.382056e-009
-4.915018e-009
-5.841643e-009
-5.118606e-009
-3.291899e-009
-9.903383e-010
1.357906e-009
3.465981e-009
5.055571e-009
5.892223e-009
5.923041e-009
5.301914e-009
4.252686e-009
2.932730e-009
1.434820e-009
-1.304563e-010
-1.616888e-009
-2.915804e-009
-4.009525e-009
-4.927893e-009
-5.670402e-009
-6.199521e-009
-6.504869e-009
-6.639797e-009
-6.676306e-009
-6.640930e-009
-6.517993e-009
-6.309781e-009
-6.065353e-009
-5.837840e-009
-5.632308e-009
-5.418433e-009
-5.189516e-009
-4.983709e-009
-4.837297e-009
-4.737298e-009
-4.643292e-009
-4.550364e-009
-4.503736e-009
-4.540705e-009
-4.639074e-009
-4.746160e-009
-4.849961e-009
-4.990497e-009
-5.189661e-009
-5.395198e-009
-5.520953e-009
-5.531956e-009
-5.454899e-009
-5.295423e-009
-4.978530e-009
-4.403676e-009
-3.547131e-009
-2.474045e-009
-1.249334e-009
1.134179e-010
1.574197e-009
2.961825e-009
4.006838e-009
4.500286e-009
4.386598e-009
3.683216e-009
2.376111e-009
5.051380e-010
-1.610044e-009
-3.319019e-009
-3.958889e-009
-3.311475e-009
-1.752391e-009
5.778002e-011
1.600364e-009
2.610536e-009
2.870928e-009
2.111165e-009
3.086594e-010
-1.890514e-009
-3.245119e-009
-2.711988e-009
-3.976509e-010
2.245305e-009
3.349316e-009
2.057493e-009
-7.242944e-010
-2.940739e-009
-1.217199e-008
-4.382429e-009
4.526933e-009
8.634886e-009
6.305284e-009
4.607759e-010
-4.299319e-009
-5.236761e-009
-2.940146e-009
2.565057e-011
1.643607e-009
1.797484e-009
1.563856e-009
1.611247e-009
1.513915e-009
5.386425e-010
-1.198758e-009
-2.603469e-009
-2.634213e-009
-1.325205e-009
2.957317e-010
1.222267e-009
1.289502e-009
1.027557e-009
9.018114e-010
8.594451e-010
5.824806e-010
-5.406040e-012
-6.153327e-010
-9.247436e-010
-9.017978e-010
-7.586365e-010
-6.631097e-010
-5.817475e-010
-3.928961e-010
-7.058979e-011
2.899569e-010
5.938986e-010
8.377821e-010
1.074775e-009
1.329281e-009
1.572460e-009
1.767621e-009
1.912435e-009
2.031588e-009
2.143427e-009
2.243946e-009
2.318401e-009
2.360740e-009
2.380947e-009
2.395072e-009
2.407437e-009
2.404360e-009
2.371474e-009
2.317465e-009
2.268863e-009
2.231987e-009
2.171256e-009
2.046963e-009
1.874489e-009
1.716849e-009
1.598044e-009
1.447827e-009
1.176260e-009
8.045667e-010
4.688183e-010
2.545599e-010
6.668273e-011
-2.577702e-010
-6.947169e-010
-9.755418e-010
-8.655175e-010
-4.670162e-010
-1.315701e-010
-2.726471e-011
1.010172e-010
6.024343e-010
1.358637e-009
1.715751e-009
1.122740e-009
-1.912221e-010
-1.325089e-009
-1.567408e-009
-1.071618e-009
-5.656818e-010
-4.278436e-010
-2.357920e-010
6.206968e-010
1.940570e-009
2.558084e-009
1.410119e-009
-1.181523e-009
-3.409115e-009
-3.373346e-009
-7.967031e-010
2.529812e-009
4.069444e-009
2.572596e-009
-8.725118e-010
-3.651003e-009
-4.347827e-009
-1.000040e-009
2.429935e-009
3.183500e-009
9.725015e-010
-1.993494e-009
-2.957002e-009
-9.801237e-010
2.251288e-009
3.901295e-009
2.454566e-009
-1.020485e-009
-3.911284e-009
-4.340955e-009
-2.526180e-009
-1.010344e-010
1.630341e-009
2.631054e-009
3.492983e-009
4.249795e-009
4.129494e-009
2.475553e-009
-3.357577e-010
-3.083193e-009
-4.756938e-009
-5.290259e-009
-5.256829e-009
-5.043413e-009
-4.489544e-009
-3.284440e-009
-1.501352e-009
3.949191e-010
2.001687e-009
3.300130e-009
4.506063e-009
5.713017e-009
6.776381e-009
7.517775e-009
7.941765e-009
8.206648e-009
8.430846e-009
8.590984e-009
8.608617e-009
8.484109e-009
8.310001e-009
8.168673e-009
8.053551e-009
7.904335e-009
7.701219e-009
7.498853e-009
7.361163e-009
7.281200e-009
7.191131e-009
7.057148e-009
6.939219e-009
6.925619e-009
7.011758e-009
7.086207e-009
7.066683e-009
7.019370e-009
7.080771e-009
7.249836e-009
7.325596e-009
7.116365e-009
6.677891e-009
6.241557e-009
5.870745e-009
5.286701e-009
4.156850e-009
2.541091e-009
9.100809e-010
-3.609340e-010
-1.410970e-009
-2.635313e-009
-3.999216e-009
-4.802982e-009
-4.318070e-009
-2.629962e-009
-6.674023e-010
6.904125e-010
1.409613e-009
2.052469e-009
2.794559e-009
2.959222e-009
1.750171e-009
-5.961782e-010
-2.632213e-009
-2.877825e-009
-1.219552e-009
9.200513e-010
1.847923e-009
1.064527e-009
-4.432079e-010
-1.237542e-009
-7.182969e-010
4.900841e-010
1.240365e-009
8.895999e-010
-2.307486e-010
-1.174476e-009
6.597910e-009
3.026834e-009
-1.420198e-009
-4.312725e-009
-4.628275e-009
-2.742616e-009
2.884466e-010
3.265651e-009
4.972402e-009
4.409334e-009
1.457011e-009
-2.596092e-009
-5.533918e-009
-5.678952e-009
-3.138185e-009
3.810152e-010
3.029235e-009
4.116798e-009
4.093034e-009
3.531037e-009
2.436446e-009
5.978663e-010
-1.663609e-009
-3.430072e-009
-3.955313e-009
-3.343644e-009
-2.337746e-009
-1.505028e-009
-7.820474e-010
1.842154e-010
1.434187e-009
2.588607e-009
3.290769e-009
3.587610e-009
3.800255e-009
4.109709e-009
4.387384e-009
4.425384e-009
4.222519e-009
3.974702e-009
3.830416e-009
3.742070e-009
3.574831e-009
3.300677e-009
3.030138e-009
2.865794e-009
2.779596e-009
2.664142e-009
2.480295e-009
2.308835e-009
2.242232e-009
2.257902e-009
2.241834e-009
2.141171e-009
2.048303e-009
2.091210e-009
2.257602e-009
2.392214e-009
2.399079e-009
2.392709e-009
2.569914e-009
2.935136e-009
3.248377e-009
3.311999e-009
3.246028e-009
3.354224e-009
3.696964e-009
3.923649e-009
3.643967e-009
2.909312e-009
2.162254e-009
1.659523e-009
1.098870e-009
-5.344017e-012
-1.601425e-009
-2.949498e-009
-3.304887e-009
-2.652526e-009
-1.608885e-009
-6.348223e-010
4.239923e-010
1.866472e-009
3.343808e-009
3.833517e-009
2.577314e-009
-1.067409e-011
-2.500242e-009
-3.545951e-009
-2.832569e-009
-1.048523e-009
8.367080e-010
2.136299e-009
2.477760e-009
1.691692e-009
-1.499282e-011
-1.817321e-009
-2.545047e-009
-1.548350e-009
5.871688e-010
2.311866e-009
1.145773e-008
3.952968e-009
-4.306363e-009
-7.679845e-009
-5.192365e-009
-1.311234e-010
3.406827e-009
3.703453e-009
1.867289e-009
-6.705764e-011
-1.049186e-009
-1.253187e-009
-1.086803e-009
-5.335073e-010
4.745494e-010
1.448831e-009
1.536843e-009
3.944311e-010
-1.337907e-009
-2.570963e-009
-2.704370e-009
-1.933081e-009
-7.344585e-010
6.897405e-010
2.351801e-009
4.045581e-009
5.255257e-009
5.582782e-009
5.135013e-009
4.362470e-009
3.561306e-009
2.656734e-009
1.480498e-009
1.224142e-010
-1.103051e-009
-1.994048e-009
-2.646086e-009
-3.269276e-009
-3.905239e-009
-4.402128e-009
-4.641533e-009
-4.700504e-009
-4.752739e-009
-4.861194e-009
-4.932404e-009
-4.872242e-009
-4.726444e-009
-4.626428e-009
-4.621012e-009
-4.618558e-009
-4.516001e-009
-4.345567e-009
-4.242056e-009
-4.265598e-009
-4.313521e-009
-4.251601e-009
-4.102893e-009
-4.033498e-009
-4.129399e-009
-4.254316e-009
-4.202314e-009
-3.967486e-009
-3.760670e-009
-3.713024e-009
-3.645412e-009
-3.241322e-009
-2.435279e-009
-1.504560e-009
-7.120114e-010
4.054379e-011
1.059528e-009
2.369028e-009
3.527655e-009
4.031708e-009
3.813863e-009
3.206735e-009
2.450177e-009
1.438298e-009
7.078209e-011
-1.285916e-009
-1.936055e-009
-1.531208e-009
-4.762191e-010
4.558917e-010
8.380501e-010
7.830325e-010
4.919387e-010
-1.010855e-010
-1.020202e-009
-1.724679e-009
-1.302165e-009
5.136867e-010
2.597335e-009
3.075496e-009
1.061229e-009
-2.186853e-009
-4.045300e-009
-2.772660e-009
8.054533e-010
3.835258e-009
7.137411e-009
1.221942e-009
-4.450388e-009
-5.078915e-009
-8.518365e-010
3.827044e-009
4.579481e-009
8.751672e-010
-3.846478e-009
-5.524692e-009
-2.980872e-009
1.530490e-009
4.752428e-009
5.138320e-009
3.397999e-009
1.006759e-009
-1.265092e-009
-3.353709e-009
-5.000202e-009
-5.427719e-009
-4.047503e-009
-1.222829e-009
1.906313e-009
4.322238e-009
5.727118e-009
6.326247e-009
6.292695e-009
5.619126e-009
4.382402e-009
2.902169e-009
1.529060e-009
3.681086e-010
-6.873380e-010
-1.691639e-009
-2.530582e-009
-3.085440e-009
-3.414253e-009
-3.690284e-009
-3.992719e-009
-4.239019e-009
-4.336645e-009
-4.333733e-009
-4.367266e-009
-4.491423e-009
-4.622341e-009
-4.666500e-009
-4.652244e-009
-4.687779e-009
-4.807222e-009
-4.916211e-009
-4.913207e-009
-4.824003e-009
-4.764668e-009
-4.777741e-009
-4.764663e-009
-4.616155e-009
-4.370526e-009
-4.176957e-009
-4.099413e-009
-4.027488e-009
-3.830982e-009
-3.556524e-009
-3.384663e-009
-3.385294e-009
-3.403374e-009
-3.245840e-009
-2.918315e-009
-2.571287e-009
-2.219674e-009
-1.643400e-009
-6.450231e-010
6.738045e-010
2.010255e-009
3.196033e-009
4.263480e-009
5.109157e-009
5.265556e-009
4.250069e-009
2.176344e-009
-1.631265e-010
-1.947873e-009
-2.955455e-009
-3.386154e-009
-3.176570e-009
-1.861907e-009
6.176817e-010
3.144342e-009
3.931036e-009
2.155272e-009
-9.482248e-010
-2.917398e-009
-2.233829e-009
2.634297e-010
2.167351e-009
1.760508e-009
-4.326175e-010
-2.236224e-009
-1.913677e-009
2.392652e-010
2.227094e-009
-1.621925e-009
-2.198620e-009
-1.830322e-009
4.028641e-010
3.496625e-009
4.964284e-009
2.936038e-009
-1.815872e-009
-5.982290e-009
-6.268455e-009
-2.267723e-009
3.073906e-009
5.961795e-009
4.882686e-009
1.449042e-009
-1.550160e-009
-2.643269e-009
-2.293533e-009
-1.561190e-009
-7.499800e-010
4.850964e-010
2.114136e-009
3.337040e-009
3.328558e-009
2.124984e-009
5.667178e-010
-5.480084e-010
-1.063759e-009
-1.263140e-009
-1.322152e-009
-1.145844e-009
-6.519472e-010
-2.173491e-012
5.260756e-010
7.973312e-010
8.539803e-010
7.418979e-010
4.081693e-010
-2.075305e-010
-1.060034e-009
-2.038724e-009
-3.089904e-009
-4.237594e-009
-5.482413e-009
-6.737886e-009
-7.900565e-009
-8.950141e-009
-9.932486e-009
-1.084950e-008
-1.161515e-008
-1.214262e-008
-1.243765e-008
-1.256167e-008
-1.251475e-008
-1.220988e-008
-1.158376e-008
-1.068933e-008
-9.633132e-009
-8.444620e-009
-7.073644e-009
-5.530577e-009
-3.962964e-009
-2.539727e-009
-1.302005e-009
-2.106060e-010
6.688849e-010
1.142061e-009
1.115364e-009
7.703260e-010
3.881226e-010
2.586574e-011
-4.702185e-010
-1.059734e-009
-1.281826e-009
-6.617367e-010
6.475836e-010
1.846619e-009
2.255423e-009
1.971761e-009
1.563686e-009
1.176038e-009
2.923083e-010
-1.381776e-009
-3.001767e-009
-3.016277e-009
-7.791421e-010
2.410971e-009
4.189914e-009
3.203490e-009
3.000858e-010
-2.314821e-009
-3.006173e-009
-1.826852e-009
-2.108179e-011
1.227505e-009
1.518679e-009
1.075579e-009
2.843029e-010
-5.141647e-010
-1.017689e-009
-7.653052e-009
-2.990959e-009
2.146031e-009
4.475538e-009
3.596925e-009
1.226077e-009
-8.847610e-010
-2.030662e-009
-2.122411e-009
-1.110012e-009
6.958296e-010
2.123564e-009
1.752384e-009
-5.834988e-010
-3.159614e-009
-3.686582e-009
-1.422149e-009
2.161042e-009
4.829433e-009
5.513995e-009
4.725058e-009
3.392220e-009
1.783773e-009
-2.980507e-010
-2.632323e-009
-4.357780e-009
-4.728098e-009
-3.854176e-009
-2.534706e-009
-1.465518e-009
-7.918189e-010
-3.876628e-010
-3.284573e-010
-9.322431e-010
-2.421326e-009
-4.712190e-009
-7.568520e-009
-1.085167e-008
-1.454981e-008
-1.862346e-008
-2.292348e-008
-2.727324e-008
-3.156566e-008
-3.574509e-008
-3.973485e-008
-4.343168e-008
-4.676051e-008
-4.968963e-008
-5.218301e-008
-5.417213e-008
-5.559320e-008
-5.642279e-008
-5.664529e-008
-5.620351e-008
-5.502548e-008
-5.310266e-008
-5.049808e-008
-4.725945e-008
-4.337464e-008
-3.886749e-008
-3.391108e-008
-2.876698e-008
-2.359944e-008
-1.843797e-008
-1.338889e-008
-8.807318e-009
-5.115842e-009
-2.434378e-009
-5.298235e-010
7.736981e-010
1.261060e-009
6.176727e-010
-9.270171e-010
-2.474750e-009
-3.165988e-009
-2.925240e-009
-2.293819e-009
-1.552366e-009
-3.336281e-010
1.657184e-009
3.727733e-009
4.449807e-009
3.053522e-009
4.065816e-010
-1.649446e-009
-1.949415e-009
-8.646063e-010
3.988712e-010
1.029847e-009
9.792673e-010
4.275470e-010
-5.563164e-010
-1.638117e-009
-1.925381e-009
-6.540374e-010
1.664708e-009
3.176357e-009
2.263441e-009
-6.726384e-010
-3.258811e-009
-7.787016e-009
-8.053037e-010
5.378434e-009
5.263343e-009
6.346138e-012
-4.722730e-009
-4.606789e-009
-3.136442e-010
4.042120e-009
5.141271e-009
2.904751e-009
-5.496497e-010
-3.301975e-009
-4.628318e-009
-4.353157e-009
-2.304980e-009
1.166806e-009
4.636207e-009
6.289963e-009
5.412856e-009
2.979974e-009
6.448764e-010
-6.947497e-010
-1.215707e-009
-1.344251e-009
-1.079891e-009
-2.889950e-010
6.299050e-010
7.393764e-010
-7.316013e-010
-3.862809e-009
-8.290705e-009
-1.381224e-008
-2.057529e-008
-2.872941e-008
-3.808793e-008
-4.822425e-008
-5.880516e-008
-6.971715e-008
-8.089307e-008
-9.213108e-008
-1.031326e-007
-1.136600e-007
-1.235959e-007
-1.328668e-007
-1.413635e-007
-1.489457e-007
-1.554878e-007
-1.608970e-007
-1.651037e-007
-1.680474e-007
-1.696530e-007
-1.698073e-007
-1.683812e-007
-1.653074e-007
-1.606212e-007
-1.543887e-007
-1.466074e-007
-1.372510e-007
-1.264514e-007
-1.145743e-007
-1.020352e-007
-8.906339e-008
-7.576250e-008
-6.243326e-008
-4.970343e-008
-3.819002e-008
-2.807029e-008
-1.916087e-008
-1.147135e-008
-5.491938e-009
-1.732346e-009
-3.305753e-011
4.298139e-010
3.880764e-010
-4.690648e-011
-9.616029e-010
-1.861318e-009
-1.726364e-009
-4.309803e-011
2.426708e-009
4.186634e-009
4.304966e-009
3.002429e-009
1.041759e-009
-1.036672e-009
-2.811144e-009
-3.481012e-009
-2.214483e-009
6.432953e-010
3.106643e-009
3.018687e-009
3.050755e-010
-2.545070e-009
-2.734300e-009
-3.555373e-011
2.815088e-009
2.842061e-009
-7.660831e-011
-3.022928e-009
-4.126438e-009
1.700889e-009
5.915569e-009
3.599476e-009
-3.122974e-009
-7.622318e-009
-5.475408e-009
1.382029e-009
6.865555e-009
6.646849e-009
1.752333e-009
-3.217926e-009
-4.695980e-009
-2.750563e-009
1.897786e-010
2.147010e-009
2.776453e-009
2.482460e-009
1.420246e-009
-2.736613e-010
-1.814921e-009
-2.044192e-009
-5.225648e-010
1.922782e-009
3.880817e-009
4.388713e-009
3.142909e-009
-7.815815e-011
-5.791527e-009
-1.447947e-008
-2.610927e-008
-4.021713e-008
-5.643495e-008
-7.475435e-008
-9.523465e-008
-1.176044e-007
-1.412731e-007
-1.656769e-007
-1.904850e-007
-2.154603e-007
-2.402334e-007
-2.643022e-007
-2.872213e-007
-3.087239e-007
-3.286525e-007
-3.468236e-007
-3.629840e-007
-3.768725e-007
-3.882907e-007
-3.971091e-007
-4.032104e-007
-4.064175e-007
-4.064818e-007
-4.031675e-007
-3.963682e-007
-3.861159e-007
-3.724569e-007
-3.553652e-007
-3.348695e-007
-3.112901e-007
-2.852729e-007
-2.575241e-007
-2.285666e-007
-1.988647e-007
-1.691628e-007
-1.405149e-007
-1.138399e-007
-8.951320e-008
-6.754460e-008
-4.812811e-008
-3.180321e-008
-1.896563e-008
-9.396837e-009
-2.514131e-009
1.965386e-009
3.912658e-009
3.480045e-009
1.674939e-009
-6.962098e-011
-8.924786e-010
-8.452256e-010
-2.585042e-010
8.145624e-010
2.200131e-009
2.953152e-009
1.848394e-009
-1.061193e-009
-3.725636e-009
-3.643789e-009
-4.541978e-010
3.285635e-009
4.327059e-009
1.857311e-009
-1.727293e-009
-3.227023e-009
-1.713350e-009
8.395731e-010
1.819556e-009
6.326488e-010
-9.559848e-010
-1.783707e-010
1.933744e-009
2.978192e-009
9.613732e-010
-2.741275e-009
-4.597581e-009
-2.496455e-009
1.843011e-009
4.304565e-009
2.467230e-009
-1.819934e-009
-4.199580e-009
-2.156899e-009
2.575889e-009
5.924996e-009
5.411088e-009
1.992190e-009
-1.561366e-009
-3.369269e-009
-3.347542e-009
-2.159908e-009
-2.132758e-010
2.074325e-009
3.574821e-009
2.631931e-009
-1.990310e-009
-1.060288e-008
-2.307882e-008
-3.957576e-008
-6.059143e-008
-8.646726e-008
-1.171189e-007
-1.522879e-007
-1.918295e-007
-2.355783e-007
-2.829983e-007
-3.331259e-007
-3.848888e-007
-4.373975e-007
-4.899059e-007
-5.416067e-007
-5.915950e-007
-6.390527e-007
-6.834056e-007
-7.242736e-007
-7.613005e-007
-7.940643e-007
-8.221306e-007
-8.451476e-007
-8.628597e-007
-8.750183e-007
-8.812808e-007
-8.812105e-007
-8.744049e-007
-8.606331e-007
-8.398270e-007
-8.119476e-007
-7.769445e-007
-7.349523e-007
-6.865483e-007
-6.327503e-007
-5.747377e-007
-5.136647e-007
-4.508262e-007
-3.879128e-007
-3.268765e-007
-2.694124e-007
-2.166183e-007
-1.691936e-007
-1.277941e-007
-9.293513e-008
-6.453928e-008
-4.186404e-008
-2.410619e-008
-1.098029e-008
-2.479333e-009
1.880862e-009
3.258448e-009
2.808021e-009
1.123445e-009
-1.300457e-009
-3.253969e-009
-3.137903e-009
-5.421913e-010
2.775979e-009
4.133481e-009
2.455144e-009
-6.080511e-010
-2.304025e-009
-1.436580e-009
7.344666e-010
2.054816e-009
1.567278e-009
1.884737e-011
-1.265484e-009
-1.588100e-009
-1.075591e-009
-1.845781e-010
6.768582e-010
1.202692e-009
2.880826e-009
5.186353e-011
-2.240510e-009
-1.900272e-009
2.703079e-010
2.081317e-009
2.266782e-009
1.026630e-009
-9.346189e-010
-2.923867e-009
-3.864892e-009
-2.466143e-009
1.346221e-009
5.413905e-009
6.682819e-009
4.054821e-009
-3.291070e-010
-2.991982e-009
-2.254476e-009
6.335633e-010
3.115401e-009
3.444090e-009
1.052435e-009
-4.547467e-009
-1.448104e-008
-3.002941e-008
-5.192588e-008
-8.051517e-008
-1.164762e-007
-1.610323e-007
-2.153405e-007
-2.798155e-007
-3.540782e-007
-4.373213e-007
-5.284739e-007
-6.260417e-007
-7.280409e-007
-8.322872e-007
-9.367809e-007
-1.039816e-006
-1.139840e-006
-1.235367e-006
-1.325110e-006
-1.408125e-006
-1.483779e-006
-1.551558e-006
-1.610923e-006
-1.661336e-006
-1.702338e-006
-1.733563e-006
-1.754624e-006
-1.765005e-006
-1.764064e-006
-1.751187e-006
-1.725920e-006
-1.687955e-006
-1.637024e-006
-1.572933e-006
-1.495810e-006
-1.406362e-006
-1.305855e-006
-1.195916e-006
-1.078485e-006
-9.560513e-007
-8.317734e-007
-7.091632e-007
-5.915260e-007
-4.816984e-007
-3.821621e-007
-2.950053e-007
-2.214072e-007
-1.611595e-007
-1.129587e-007
-7.530825e-008
-4.702319e-008
-2.685467e-008
-1.304237e-008
-3.780440e-009
1.809914e-009
3.655927e-009
2.084539e-009
-9.979472e-010
-2.818268e-009
-1.862013e-009
9.331589e-010
3.292529e-009
3.739743e-009
2.480178e-009
5.555108e-010
-1.194301e-009
-2.191834e-009
-1.870681e-009
-1.751858e-010
1.728783e-009
2.049448e-009
2.480568e-010
-1.970082e-009
-2.204490e-009
-4.136559e-011
2.288205e-009
5.775401e-009
-1.591185e-009
-6.909313e-009
-4.438127e-009
2.775241e-009
7.253688e-009
5.152676e-009
-7.023160e-010
-4.836175e-009
-4.624683e-009
-1.559167e-009
1.539889e-009
3.150122e-009
3.137344e-009
1.777056e-009
-2.684727e-010
-1.499483e-009
-3.460953e-010
3.041335e-009
6.138983e-009
5.638085e-009
-3.822006e-010
-1.208232e-008
-2.944660e-008
-5.378243e-008
-8.760039e-008
-1.335124e-007
-1.936747e-007
-2.700904e-007
-3.647724e-007
-4.790945e-007
-6.129127e-007
-7.643910e-007
-9.305852e-007
-1.108054e-006
-1.293040e-006
-1.481486e-006
-1.669331e-006
-1.852972e-006
-2.029520e-006
-2.196709e-006
-2.352716e-006
-2.496146e-006
-2.626107e-006
-2.742143e-006
-2.844008e-006
-2.931481e-006
-3.004318e-006
-3.062316e-006
-3.105303e-006
-3.133021e-006
-3.145018e-006
-3.140649e-006
-3.119212e-006
-3.080037e-006
-3.022452e-006
-2.945699e-006
-2.849029e-006
-2.731983e-006
-2.594622e-006
-2.437552e-006
-2.261919e-006
-2.069659e-006
-1.863913e-006
-1.649131e-006
-1.430678e-006
-1.214319e-006
-1.006016e-006
-8.118101e-007
-6.371855e-007
-4.859426e-007
-3.594950e-007
-2.572645e-007
-1.776099e-007
-1.181655e-007
-7.550551e-008
-4.529708e-008
-2.363032e-008
-8.439930e-009
6.527386e-010
4.043490e-009
3.458936e-009
1.438548e-009
-1.520157e-010
-6.974192e-010
-1.805386e-010
1.269015e-009
2.874497e-009
3.024308e-009
6.828889e-010
-2.818826e-009
-4.304249e-009
-1.927876e-009
2.350628e-009
4.342378e-009
2.064390e-009
-1.936231e-009
-3.322056e-009
-8.384231e-010
2.323195e-009
8.127442e-009
-1.323069e-009
-8.266171e-009
-5.490990e-009
2.967486e-009
7.610949e-009
4.132389e-009
-2.784614e-009
-5.575655e-009
-1.982335e-009
3.542037e-009
5.466001e-009
2.709818e-009
-1.439624e-009
-3.429096e-009
-2.346181e-009
5.832742e-010
3.711434e-009
5.384945e-009
3.417323e-009
-4.675487e-009
-2.067399e-008
-4.555641e-008
-8.095229e-008
-1.306121e-007
-2.001499e-007
-2.953166e-007
-4.205184e-007
-5.784820e-007
-7.703334e-007
-9.951571e-007
-1.249307e-006
-1.526458e-006
-1.818649e-006
-2.117566e-006
-2.415281e-006
-2.704538e-006
-2.979081e-006
-3.234128e-006
-3.466629e-006
-3.675061e-006
-3.858993e-006
-4.018775e-006
-4.155376e-006
-4.270200e-006
-4.364805e-006
-4.440664e-006
-4.499092e-006
-4.541287e-006
-4.568339e-006
-4.581136e-006
-4.580258e-006
-4.565955e-006
-4.538177e-006
-4.496534e-006
-4.440125e-006
-4.367367e-006
-4.276021e-006
-4.163391e-006
-4.026493e-006
-3.862180e-006
-3.667514e-006
-3.440600e-006
-3.181564e-006
-2.893120e-006
-2.580580e-006
-2.251734e-006
-1.916801e-006
-1.587899e-006
-1.277480e-006
-9.961616e-007
-7.512727e-007
-5.467262e-007
-3.834644e-007
-2.594580e-007
-1.695608e-007
-1.064361e-007
-6.273666e-008
-3.299304e-008
-1.374562e-008
-2.441728e-009
3.176648e-009
4.718445e-009
3.121899e-009
-2.594828e-010
-2.891129e-009
-2.394626e-009
9.586954e-010
3.864183e-009
3.117348e-009
-7.554771e-010
-3.725519e-009
-2.576704e-009
1.439245e-009
3.933054e-009
2.306574e-009
-1.389294e-009
-2.963298e-009
-9.636748e-010
1.803227e-009
7.507356e-009
1.164786e-010
-5.498094e-009
-3.906525e-009
1.653804e-009
4.016128e-009
5.810746e-010
-4.044048e-009
-3.790236e-009
1.740152e-009
6.894787e-009
6.389557e-009
9.587770e-010
-3.843120e-009
-3.671313e-009
6.398507e-010
4.679199e-009
4.600375e-009
-1.065751e-009
-1.293406e-008
-3.285701e-008
-6.441258e-008
-1.124938e-007
-1.834927e-007
-2.857559e-007
-4.287801e-007
-6.208521e-007
-8.666225e-007
-1.165986e-006
-1.514054e-006
-1.901282e-006
-2.313676e-006
-2.733877e-006
-3.143418e-006
-3.525271e-006
-3.865590e-006
-4.154433e-006
-4.385962e-006
-4.558484e-006
-4.674111e-006
-4.737904e-006
-4.756713e-006
-4.738211e-006
-4.690264e-006
-4.620510e-006
-4.536039e-006
-4.443216e-006
-4.347732e-006
-4.254773e-006
-4.169174e-006
-4.095441e-006
-4.037698e-006
-3.999557e-006
-3.983920e-006
-3.992574e-006
-4.025600e-006
-4.080746e-006
-4.152979e-006
-4.234210e-006
-4.313131e-006
-4.375343e-006
-4.404240e-006
-4.382872e-006
-4.296340e-006
-4.134035e-006
-3.891506e-006
-3.572047e-006
-3.187665e-006
-2.758401e-006
-2.309429e-006
-1.866860e-006
-1.453999e-006
-1.088984e-006
-7.833766e-007
-5.412355e-007
-3.592930e-007
-2.290113e-007
-1.397752e-007
-8.130304e-008
-4.440767e-008
-2.126850e-008
-6.451244e-009
2.204973e-009
4.762699e-009
2.174633e-009
-1.998781e-009
-3.479159e-009
-9.431807e-010
2.843229e-009
4.071651e-009
1.879371e-009
-1.084646e-009
-1.869786e-009
-3.345747e-010
1.213048e-009
9.673158e-010
-4.651370e-010
-1.164207e-009
-3.384838e-010
8.473966e-010
2.160356e-009
8.490531e-010
-1.585754e-010
-2.089057e-011
3.771000e-010
-4.228562e-010
-2.290322e-009
-3.030273e-009
-7.552174e-010
3.346592e-009
5.535311e-009
3.484097e-009
-6.960839e-010
-2.311416e-009
7.931190e-010
5.475645e-009
5.861456e-009
-1.992281e-009
-1.871043e-008
-4.473566e-008
-8.427800e-008
-1.463476e-007
-2.430293e-007
-3.875232e-007
-5.929707e-007
-8.707388e-007
-1.227094e-006
-1.659358e-006
-2.153620e-006
-2.684849e-006
-3.218895e-006
-3.715768e-006
-4.134201e-006
-4.437116e-006
-4.596619e-006
-4.596953e-006
-4.434968e-006
-4.118816e-006
-3.665792e-006
-3.099712e-006
-2.448006e-006
-1.738939e-006
-9.994987e-007
-2.541628e-007
4.756079e-007
1.171376e-006
1.817355e-006
2.399754e-006
2.906023e-006
3.324189e-006
3.642436e-006
3.848984e-006
3.932328e-006
3.881854e-006
3.688907e-006
3.348288e-006
2.860022e-006
2.231164e-006
1.477524e-006
6.251716e-007
-2.887978e-007
-1.217050e-006
-2.104859e-006
-2.894796e-006
-3.532670e-006
-3.974306e-006
-4.192517e-006
-4.182654e-006
-3.964454e-006
-3.578904e-006
-3.080995e-006
-2.530638e-006
-1.983700e-006
-1.484467e-006
-1.060884e-006
-7.240219e-007
-4.716568e-007
-2.935294e-007
-1.753869e-007
-1.012542e-007
-5.565836e-008
-2.671100e-008
-8.201786e-009
1.629113e-009
3.876837e-009
1.640525e-009
-8.532059e-010
-1.052869e-009
6.555039e-010
2.357394e-009
2.706326e-009
1.643441e-009
-1.113317e-010
-1.585908e-009
-1.880429e-009
-7.735060e-010
7.887498e-010
1.347167e-009
4.595097e-010
-7.083364e-010
-5.979271e-009
3.155168e-010
5.168990e-009
4.037969e-009
-6.802376e-010
-3.652094e-009
-2.567618e-009
5.591975e-010
2.633557e-009
2.456284e-009
8.133301e-010
-7.693259e-010