# vtk DataFile Version 3.0
vtk output
ASCII
DATASET STRUCTURED_POINTS
DIMENSIONS 100 100 1
SPACING 1 1 1
ORIGIN 0 0 0
POINT_DATA 10000
SCALARS SFBox_profile double
LOOKUP_TABLE default 
9.439918e-003
9.439919e-003
9.439920e-003
9.439921e-003
9.439921e-003
9.439920e-003
9.439920e-003
9.439920e-003
9.439921e-003
9.439922e-003
9.439923e-003
9.439925e-003
9.439926e-003
9.439928e-003
9.439931e-003
9.439934e-003
9.439938e-003
9.439942e-003
9.439947e-003
9.439952e-003
9.439957e-003
9.439962e-003
9.439966e-003
9.439969e-003
9.439971e-003
9.439972e-003
9.439971e-003
9.439970e-003
9.439966e-003
9.439961e-003
9.439954e-003
9.439946e-003
9.439937e-003
9.439927e-003
9.439915e-003
9.439903e-003
9.439891e-003
9.439878e-003
9.439865e-003
9.439852e-003
9.439840e-003
9.439827e-003
9.439816e-003
9.439805e-003
9.439794e-003
9.439784e-003
9.439775e-003
9.439767e-003
9.439761e-003
9.439755e-003
9.439752e-003
9.439750e-003
9.439750e-003
9.439752e-003
9.439757e-003
9.439764e-003
9.439774e-003
9.439786e-003
9.439801e-003
9.439817e-003
9.439834e-003
9.439853e-003
9.439872e-003
9.439890e-003
9.439908e-003
9.439923e-003
9.439936e-003
9.439947e-003
9.439955e-003
9.439959e-003
9.439961e-003
9.439961e-003
9.439959e-003
9.439956e-003
9.439952e-003
9.439947e-003
9.439942e-003
9.439938e-003
9.439934e-003
9.439931e-003
9.439928e-003
9.439925e-003
9.439923e-003
9.439922e-003
9.439922e-003
9.439921e-003
9.439920e-003
9.439920e-003
9.439920e-003
9.439921e-003
9.439921e-003
9.439920e-003
9.439920e-003
9.439919e-003
9.439920e-003
9.439920e-003
9.439921e-003
9.439920e-003
9.439920e-003
9.439920e-003
9.439918e-003
9.439919e-003
9.439920e-003
9.439921e-003
9.439921e-003
9.439920e-003
9.439920e-003
9.439920e-003
9.439921e-003
9.439922e-003
9.439923e-003
9.439925e-003
9.439926e-003
9.439928e-003
9.439931e-003
9.439934e-003
9.439938e-003
9.439942e-003
9.439947e-003
9.439952e-003
9.439957e-003
9.439962e-003
9.439966e-003
9.439969e-003
9.439971e-003
9.439972e-003
9.439971e-003
9.439970e-003
9.439966e-003
9.439961e-003
9.439954e-003
9.439946e-003
9.439937e-003
9.439927e-003
9.439915e-003
9.439903e-003
9.439891e-003
9.439878e-003
9.439865e-003
9.439852e-003
9.439840e-003
9.439827e-003
9.439816e-003
9.439805e-003
9.439794e-003
9.439784e-003
9.439775e-003
9.439767e-003
9.439761e-003
9.439755e-003
9.439752e-003
9.439750e-003
9.439750e-003
9.439752e-003
9.439757e-003
9.439764e-003
9.439774e-003
9.439786e-003
9.439801e-003
9.439817e-003
9.439834e-003
9.439853e-003
9.439872e-003
9.439890e-003
9.439908e-003
9.439923e-003
9.439936e-003
9.439947e-003
9.439955e-003
9.439959e-003
9.439961e-003
9.439961e-003
9.439959e-003
9.439956e-003
9.439952e-003
9.439947e-003
9.439942e-003
9.439938e-003
9.439934e-003
9.439931e-003
9.439928e-003
9.439925e-003
9.439923e-003
9.439922e-003
9.439922e-003
9.439921e-003
9.439920e-003
9.439920e-003
9.439920e-003
9.439921e-003
9.439921e-003
9.439920e-003
9.439920e-003
9.439919e-003
9.439920e-003
9.439920e-003
9.439921e-003
9.439920e-003
9.439920e-003
9.439920e-003
9.439919e-003
9.439920e-003
9.439920e-003
9.439920e-003
9.439920e-003
9.439920e-003
9.439921e-003
9.439921e-003
9.439922e-003
9.439923e-003
9.439924e-003
9.439926e-003
9.439928e-003
9.439931e-003
9.439934e-003
9.439938e-003
9.439943e-003
9.439947e-003
9.439951e-003
9.439954e-003
9.439957e-003
9.439958e-003
9.439958e-003
9.439955e-003
9.439949e-003
9.439940e-003
9.439928e-003
9.439913e-003
9.439895e-003
9.439873e-003
9.439848e-003
9.439822e-003
9.439793e-003
9.439762e-003
9.439731e-003
9.439698e-003
9.439665e-003
9.439633e-003
9.439601e-003
9.439569e-003
9.439538e-003
9.439509e-003
9.439482e-003
9.439456e-003
9.439431e-003
9.439409e-003
9.439390e-003
9.439373e-003
9.439359e-003
9.439348e-003
9.439341e-003
9.439339e-003
9.439341e-003
9.439348e-003
9.439360e-003
9.439378e-003
9.439402e-003
9.439432e-003
9.439467e-003
9.439507e-003
9.439551e-003
9.439597e-003
9.439645e-003
9.439693e-003
9.439740e-003
9.439784e-003
9.439823e-003
9.439858e-003
9.439888e-003
9.439911e-003
9.439928e-003
9.439939e-003
9.439947e-003
9.439950e-003
9.439950e-003
9.439948e-003
9.439944e-003
9.439941e-003
9.439937e-003
9.439933e-003
9.439930e-003
9.439927e-003
9.439925e-003
9.439923e-003
9.439922e-003
9.439922e-003
9.439921e-003
9.439920e-003
9.439920e-003
9.439920e-003
9.439920e-003
9.439920e-003
9.439920e-003
9.439920e-003
9.439920e-003
9.439920e-003
9.439920e-003
9.439920e-003
9.439920e-003
9.439920e-003
9.439921e-003
9.439921e-003
9.439920e-003
9.439920e-003
9.439920e-003
9.439921e-003
9.439922e-003
9.439923e-003
9.439924e-003
9.439925e-003
9.439927e-003
9.439930e-003
9.439933e-003
9.439937e-003
9.439941e-003
9.439946e-003
9.439950e-003
9.439952e-003
9.439953e-003
9.439951e-003
9.439945e-003
9.439935e-003
9.439918e-003
9.439895e-003
9.439865e-003
9.439826e-003
9.439779e-003
9.439725e-003
9.439662e-003
9.439593e-003
9.439517e-003
9.439437e-003
9.439353e-003
9.439265e-003
9.439177e-003
9.439087e-003
9.438998e-003
9.438910e-003
9.438825e-003
9.438742e-003
9.438663e-003
9.438587e-003
9.438516e-003
9.438450e-003
9.438389e-003
9.438334e-003
9.438286e-003
9.438244e-003
9.438211e-003
9.438186e-003
9.438171e-003
9.438166e-003
9.438174e-003
9.438194e-003
9.438228e-003
9.438276e-003
9.438339e-003
9.438417e-003
9.438508e-003
9.438613e-003
9.438728e-003
9.438851e-003
9.438980e-003
9.439111e-003
9.439240e-003
9.439363e-003
9.439479e-003
9.439583e-003
9.439674e-003
9.439750e-003
9.439812e-003
9.439860e-003
9.439895e-003
9.439919e-003
9.439934e-003
9.439942e-003
9.439945e-003
9.439944e-003
9.439941e-003
9.439938e-003
9.439934e-003
9.439931e-003
9.439928e-003
9.439926e-003
9.439924e-003
9.439923e-003
9.439922e-003
9.439921e-003
9.439920e-003
9.439920e-003
9.439920e-003
9.439920e-003
9.439920e-003
9.439920e-003
9.439920e-003
9.439920e-003
9.439920e-003
9.439920e-003
9.439920e-003
9.439920e-003
9.439923e-003
9.439922e-003
9.439921e-003
9.439920e-003
9.439920e-003
9.439922e-003
9.439924e-003
9.439925e-003
9.439927e-003
9.439929e-003
9.439932e-003
9.439936e-003
9.439941e-003
9.439946e-003
9.439950e-003
9.439952e-003
9.439952e-003
9.439948e-003
9.439937e-003
9.439917e-003
9.439886e-003
9.439841e-003
9.439781e-003
9.439704e-003
9.439607e-003
9.439491e-003
9.439355e-003
9.439201e-003
9.439030e-003
9.438843e-003
9.438644e-003
9.438434e-003
9.438217e-003
9.437996e-003
9.437773e-003
9.437550e-003
9.437330e-003
9.437114e-003
9.436906e-003
9.436705e-003
9.436514e-003
9.436334e-003
9.436165e-003
9.436008e-003
9.435865e-003
9.435736e-003
9.435623e-003
9.435527e-003
9.435449e-003
9.435393e-003
9.435359e-003
9.435351e-003
9.435371e-003
9.435421e-003
9.435504e-003
9.435621e-003
9.435773e-003
9.435960e-003
9.436181e-003
9.436433e-003
9.436713e-003
9.437014e-003
9.437331e-003
9.437655e-003
9.437978e-003
9.438291e-003
9.438587e-003
9.438859e-003
9.439101e-003
9.439311e-003
9.439485e-003
9.439626e-003
9.439734e-003
9.439814e-003
9.439870e-003
9.439907e-003
9.439928e-003
9.439939e-003
9.439943e-003
9.439943e-003
9.439940e-003
9.439936e-003
9.439932e-003
9.439929e-003
9.439926e-003
9.439924e-003
9.439923e-003
9.439922e-003
9.439921e-003
9.439920e-003
9.439920e-003
9.439920e-003
9.439920e-003
9.439921e-003
9.439920e-003
9.439920e-003
9.439919e-003
9.439920e-003
9.439920e-003
9.439921e-003
9.439922e-003
9.439922e-003
9.439921e-003
9.439921e-003
9.439922e-003
9.439924e-003
9.439926e-003
9.439928e-003
9.439932e-003
9.439935e-003
9.439940e-003
9.439945e-003
9.439950e-003
9.439954e-003
9.439954e-003
9.439947e-003
9.439932e-003
9.439904e-003
9.439858e-003
9.439789e-003
9.439691e-003
9.439558e-003
9.439388e-003
9.439176e-003
9.438919e-003
9.438618e-003
9.438273e-003
9.437887e-003
9.437465e-003
9.437011e-003
9.436532e-003
9.436033e-003
9.435522e-003
9.435005e-003
9.434487e-003
9.433975e-003
9.433472e-003
9.432983e-003
9.432512e-003
9.432062e-003
9.431635e-003
9.431233e-003
9.430858e-003
9.430513e-003
9.430198e-003
9.429916e-003
9.429669e-003
9.429460e-003
9.429293e-003
9.429173e-003
9.429103e-003
9.429089e-003
9.429136e-003
9.429250e-003
9.429435e-003
9.429696e-003
9.430035e-003
9.430452e-003
9.430946e-003
9.431512e-003
9.432142e-003
9.432825e-003
9.433547e-003
9.434290e-003
9.435037e-003
9.435769e-003
9.436468e-003
9.437117e-003
9.437703e-003
9.438217e-003
9.438654e-003
9.439014e-003
9.439299e-003
9.439516e-003
9.439675e-003
9.439787e-003
9.439860e-003
9.439905e-003
9.439929e-003
9.439940e-003
9.439943e-003
9.439942e-003
9.439938e-003
9.439934e-003
9.439930e-003
9.439927e-003
9.439925e-003
9.439924e-003
9.439922e-003
9.439921e-003
9.439920e-003
9.439920e-003
9.439920e-003
9.439921e-003
9.439920e-003
9.439920e-003
9.439920e-003
9.439920e-003
9.439920e-003
9.439920e-003
9.439921e-003
9.439921e-003
9.439922e-003
9.439924e-003
9.439925e-003
9.439927e-003
9.439930e-003
9.439933e-003
9.439938e-003
9.439944e-003
9.439950e-003
9.439955e-003
9.439957e-003
9.439952e-003
9.439936e-003
9.439903e-003
9.439845e-003
9.439753e-003
9.439616e-003
9.439422e-003
9.439160e-003
9.438819e-003
9.438390e-003
9.437867e-003
9.437247e-003
9.436530e-003
9.435722e-003
9.434831e-003
9.433866e-003
9.432841e-003
9.431769e-003
9.430664e-003
9.429542e-003
9.428416e-003
9.427297e-003
9.426198e-003
9.425127e-003
9.424093e-003
9.423102e-003
9.422159e-003
9.421270e-003
9.420437e-003
9.419664e-003
9.418953e-003
9.418309e-003
9.417734e-003
9.417233e-003
9.416811e-003
9.416476e-003
9.416236e-003
9.416099e-003
9.416077e-003
9.416180e-003
9.416419e-003
9.416805e-003
9.417346e-003
9.418048e-003
9.418914e-003
9.419941e-003
9.421123e-003
9.422445e-003
9.423885e-003
9.425418e-003
9.427009e-003
9.428622e-003
9.430218e-003
9.431757e-003
9.433202e-003
9.434523e-003
9.435696e-003
9.436708e-003
9.437553e-003
9.438236e-003
9.438769e-003
9.439169e-003
9.439458e-003
9.439657e-003
9.439788e-003
9.439867e-003
9.439912e-003
9.439934e-003
9.439943e-003
9.439943e-003
9.439940e-003
9.439935e-003
9.439931e-003
9.439928e-003
9.439926e-003
9.439924e-003
9.439922e-003
9.439921e-003
9.439921e-003
9.439920e-003
9.439920e-003
9.439920e-003
9.439920e-003
9.439920e-003
9.439920e-003
9.439920e-003
9.439920e-003
9.439920e-003
9.439922e-003
9.439924e-003
9.439926e-003
9.439929e-003
9.439932e-003
9.439936e-003
9.439941e-003
9.439948e-003
9.439954e-003
9.439959e-003
9.439957e-003
9.439944e-003
9.439914e-003
9.439853e-003
9.439750e-003
9.439585e-003
9.439338e-003
9.438986e-003
9.438504e-003
9.437870e-003
9.437062e-003
9.436065e-003
9.434869e-003
9.433473e-003
9.431883e-003
9.430114e-003
9.428185e-003
9.426122e-003
9.423956e-003
9.421717e-003
9.419435e-003
9.417140e-003
9.414858e-003
9.412614e-003
9.410428e-003
9.408317e-003
9.406294e-003
9.404369e-003
9.402553e-003
9.400849e-003
9.399264e-003
9.397801e-003
9.396465e-003
9.395259e-003
9.394189e-003
9.393263e-003
9.392489e-003
9.391880e-003
9.391448e-003
9.391212e-003
9.391189e-003
9.391399e-003
9.391862e-003
9.392598e-003
9.393626e-003
9.394958e-003
9.396603e-003
9.398561e-003
9.400824e-003
9.403371e-003
9.406169e-003
9.409172e-003
9.412324e-003
9.415554e-003
9.418789e-003
9.421948e-003
9.424954e-003
9.427740e-003
9.430249e-003
9.432444e-003
9.434305e-003
9.435833e-003
9.437046e-003
9.437975e-003
9.438660e-003
9.439146e-003
9.439475e-003
9.439687e-003
9.439816e-003
9.439889e-003
9.439925e-003
9.439941e-003
9.439944e-003
9.439941e-003
9.439937e-003
9.439932e-003
9.439929e-003
9.439926e-003
9.439924e-003
9.439922e-003
9.439921e-003
9.439920e-003
9.439920e-003
9.439920e-003
9.439920e-003
9.439921e-003
9.439920e-003
9.439920e-003
9.439919e-003
9.439922e-003
9.439924e-003
9.439927e-003
9.439930e-003
9.439935e-003
9.439939e-003
9.439945e-003
9.439952e-003
9.439959e-003
9.439962e-003
9.439956e-003
9.439933e-003
9.439880e-003
9.439781e-003
9.439612e-003
9.439340e-003
9.438928e-003
9.438332e-003
9.437505e-003
9.436399e-003
9.434970e-003
9.433181e-003
9.431010e-003
9.428446e-003
9.425498e-003
9.422192e-003
9.418568e-003
9.414678e-003
9.410582e-003
9.406345e-003
9.402032e-003
9.397702e-003
9.393412e-003
9.389209e-003
9.385133e-003
9.381217e-003
9.377485e-003
9.373954e-003
9.370637e-003
9.367542e-003
9.364672e-003
9.362030e-003
9.359618e-003
9.357437e-003
9.355490e-003
9.353782e-003
9.352322e-003
9.351120e-003
9.350192e-003
9.349558e-003
9.349240e-003
9.349266e-003
9.349664e-003
9.350467e-003
9.351708e-003
9.353417e-003
9.355622e-003
9.358345e-003
9.361601e-003
9.365392e-003
9.369703e-003
9.374502e-003
9.379733e-003
9.385316e-003
9.391147e-003
9.397099e-003
9.403029e-003
9.408789e-003
9.414231e-003
9.419230e-003
9.423683e-003
9.427528e-003
9.430739e-003
9.433332e-003
9.435354e-003
9.436873e-003
9.437971e-003
9.438733e-003
9.439240e-003
9.439561e-003
9.439753e-003
9.439860e-003
9.439914e-003
9.439937e-003
9.439944e-003
9.439942e-003
9.439938e-003
9.439933e-003
9.439929e-003
9.439926e-003
9.439924e-003
9.439922e-003
9.439921e-003
9.439920e-003
9.439920e-003
9.439920e-003
9.439921e-003
9.439921e-003
9.439920e-003
9.439919e-003
9.439928e-003
9.439929e-003
9.439932e-003
9.439936e-003
9.439942e-003
9.439949e-003
9.439956e-003
9.439963e-003
9.439964e-003
9.439953e-003
9.439917e-003
9.439838e-003
9.439689e-003
9.439431e-003
9.439014e-003
9.438371e-003
9.437425e-003
9.436089e-003
9.434273e-003
9.431888e-003
9.428861e-003
9.425139e-003
9.420700e-003
9.415558e-003
9.409762e-003
9.403398e-003
9.396574e-003
9.389420e-003
9.382071e-003
9.374661e-003
9.367314e-003
9.360138e-003
9.353223e-003
9.346639e-003
9.340436e-003
9.334647e-003
9.329289e-003
9.324367e-003
9.319874e-003
9.315799e-003
9.312128e-003
9.308844e-003
9.305931e-003
9.303378e-003
9.301172e-003
9.299310e-003
9.297786e-003
9.296604e-003
9.295769e-003
9.295291e-003
9.295184e-003
9.295466e-003
9.296162e-003
9.297300e-003
9.298915e-003
9.301047e-003
9.303745e-003
9.307062e-003
9.311058e-003
9.315790e-003
9.321311e-003
9.327658e-003
9.334838e-003
9.342818e-003
9.351510e-003
9.360765e-003
9.370374e-003
9.380079e-003
9.389594e-003
9.398630e-003
9.406931e-003
9.414297e-003
9.420602e-003
9.425808e-003
9.429948e-003
9.433118e-003
9.435454e-003
9.437109e-003
9.438234e-003
9.438965e-003
9.439418e-003
9.439684e-003
9.439830e-003
9.439903e-003
9.439934e-003
9.439944e-003
9.439943e-003
9.439938e-003
9.439933e-003
9.439929e-003
9.439926e-003
9.439924e-003
9.439922e-003
9.439921e-003
9.439920e-003
9.439920e-003
9.439920e-003
9.439920e-003
9.439920e-003
9.439920e-003
9.439936e-003
9.439937e-003
9.439940e-003
9.439945e-003
9.439952e-003
9.439960e-003
9.439967e-003
9.439966e-003
9.439949e-003
9.439900e-003
9.439791e-003
9.439583e-003
9.439217e-003
9.438615e-003
9.437672e-003
9.436258e-003
9.434223e-003
9.431406e-003
9.427647e-003
9.422806e-003
9.416785e-003
9.409548e-003
9.401135e-003
9.391667e-003
9.381341e-003
9.370413e-003
9.359177e-003
9.347938e-003
9.336984e-003
9.326571e-003
9.316904e-003
9.308135e-003
9.300363e-003
9.293633e-003
9.287949e-003
9.283276e-003
9.279550e-003
9.276690e-003
9.274602e-003
9.273190e-003
9.272361e-003
9.272031e-003
9.272122e-003
9.272568e-003
9.273310e-003
9.274293e-003
9.275464e-003
9.276771e-003
9.278156e-003
9.279558e-003
9.280914e-003
9.282157e-003
9.283225e-003
9.284067e-003
9.284655e-003
9.284991e-003
9.285127e-003
9.285172e-003
9.285308e-003
9.285787e-003
9.286923e-003
9.289074e-003
9.292601e-003
9.297818e-003
9.304936e-003
9.314011e-003
9.324910e-003
9.337302e-003
9.350685e-003
9.364446e-003
9.377939e-003
9.390570e-003
9.401870e-003
9.411541e-003
9.419467e-003
9.425692e-003
9.430381e-003
9.433770e-003
9.436119e-003
9.437680e-003
9.438672e-003
9.439273e-003
9.439617e-003
9.439802e-003
9.439893e-003
9.439932e-003
9.439943e-003
9.439943e-003
9.439938e-003
9.439933e-003
9.439929e-003
9.439926e-003
9.439924e-003
9.439922e-003
9.439921e-003
9.439920e-003
9.439920e-003
9.439920e-003
9.439920e-003
9.439920e-003
9.439945e-003
9.439947e-003
9.439950e-003
9.439956e-003
9.439965e-003
9.439971e-003
9.439970e-003
9.439947e-003
9.439883e-003
9.439743e-003
9.439472e-003
9.438987e-003
9.438172e-003
9.436867e-003
9.434871e-003
9.431942e-003
9.427809e-003
9.422201e-003
9.414881e-003
9.405693e-003
9.394611e-003
9.381778e-003
9.367528e-003
9.352373e-003
9.336970e-003
9.322058e-003
9.308382e-003
9.296623e-003
9.287338e-003
9.280928e-003
9.277621e-003
9.277482e-003
9.280432e-003
9.286276e-003
9.294728e-003
9.305438e-003
9.318020e-003
9.332074e-003
9.347206e-003
9.363051e-003
9.379277e-003
9.395597e-003
9.411764e-003
9.427560e-003
9.442788e-003
9.457249e-003
9.470736e-003
9.483008e-003
9.493792e-003
9.502767e-003
9.509570e-003
9.513807e-003
9.515066e-003
9.512952e-003
9.507126e-003
9.497356e-003
9.483575e-003
9.465947e-003
9.444920e-003
9.421270e-003
9.396102e-003
9.370814e-003
9.347003e-003
9.326313e-003
9.310247e-003
9.299962e-003
9.296095e-003
9.298656e-003
9.307009e-003
9.319971e-003
9.336000e-003
9.353437e-003
9.370752e-003
9.386729e-003
9.400574e-003
9.411916e-003
9.420743e-003
9.427292e-003
9.431935e-003
9.435084e-003
9.437128e-003
9.438396e-003
9.439144e-003
9.439563e-003
9.439782e-003
9.439887e-003
9.439930e-003
9.439943e-003
9.439943e-003
9.439938e-003
9.439933e-003
9.439928e-003
9.439925e-003
9.439923e-003
9.439922e-003
9.439921e-003
9.439920e-003
9.439920e-003
9.439920e-003
9.439921e-003
9.439956e-003
9.439958e-003
9.439963e-003
9.439971e-003
9.439977e-003
9.439974e-003
9.439948e-003
9.439872e-003
9.439703e-003
9.439371e-003
9.438765e-003
9.437724e-003
9.436021e-003
9.433358e-003
9.429365e-003
9.423623e-003
9.415701e-003
9.405231e-003
9.392008e-003
9.376108e-003
9.357995e-003
9.338592e-003
9.319279e-003
9.301806e-003
9.288131e-003
9.280213e-003
9.279797e-003
9.288232e-003
9.306366e-003
9.334504e-003
9.372441e-003
9.419544e-003
9.474853e-003
9.537181e-003
9.605209e-003
9.677557e-003
9.752849e-003
9.829766e-003
9.907093e-003
9.983754e-003
1.005883e-002
1.013154e-002
1.020125e-002
1.026740e-002
1.032949e-002
1.038698e-002
1.043928e-002
1.048565e-002
1.052525e-002
1.055701e-002
1.057973e-002
1.059203e-002
1.059246e-002
1.057954e-002
1.055191e-002
1.050848e-002
1.044860e-002
1.037228e-002
1.028039e-002
1.017484e-002
1.005866e-002
9.935978e-003
9.811834e-003
9.691815e-003
9.581531e-003
9.485998e-003
9.409021e-003
9.352705e-003
9.317193e-003
9.300716e-003
9.299965e-003
9.310698e-003
9.328459e-003
9.349230e-003
9.369883e-003
9.388364e-003
9.403636e-003
9.415459e-003
9.424111e-003
9.430128e-003
9.434118e-003
9.436645e-003
9.438172e-003
9.439051e-003
9.439529e-003
9.439772e-003
9.439885e-003
9.439930e-003
9.439943e-003
9.439943e-003
9.439937e-003
9.439931e-003
9.439927e-003
9.439925e-003
9.439923e-003
9.439921e-003
9.439920e-003
9.439920e-003
9.439920e-003
9.439921e-003
9.439969e-003
9.439973e-003
9.439980e-003
9.439985e-003
9.439981e-003
9.439952e-003
9.439869e-003
9.439679e-003
9.439296e-003
9.438581e-003
9.437324e-003
9.435222e-003
9.431858e-003
9.426704e-003
9.419142e-003
9.408531e-003
9.394347e-003
9.376390e-003
9.355053e-003
9.331614e-003
9.308457e-003
9.289131e-003
9.278193e-003
9.280811e-003
9.302196e-003
9.346983e-003
9.418679e-003
9.519304e-003
9.649249e-003
9.807366e-003
9.991223e-003
1.019745e-002
1.042210e-002
1.066096e-002
1.090978e-002
1.116444e-002
1.142110e-002
1.167626e-002
1.192686e-002
1.217033e-002
1.240454e-002
1.262784e-002
1.283889e-002
1.303658e-002
1.321987e-002
1.338765e-002
1.353855e-002
1.367086e-002
1.378240e-002
1.387048e-002
1.393188e-002
1.396289e-002
1.395948e-002
1.391742e-002
1.383263e-002
1.370153e-002
1.352149e-002
1.329143e-002
1.301235e-002
1.268789e-002
1.232476e-002
1.193286e-002
1.152511e-002
1.111669e-002
1.072392e-002
1.036267e-002
1.004665e-002
9.785710e-003
9.584682e-003
9.442906e-003
9.354658e-003
9.310436e-003
9.298776e-003
9.308190e-003
9.328729e-003
9.352917e-003
9.375951e-003
9.395356e-003
9.410350e-003
9.421178e-003
9.428561e-003
9.433345e-003
9.436299e-003
9.438037e-003
9.439009e-003
9.439522e-003
9.439775e-003
9.439889e-003
9.439933e-003
9.439944e-003
9.439941e-003
9.439936e-003
9.439930e-003
9.439927e-003
9.439924e-003
9.439922e-003
9.439921e-003
9.439920e-003
9.439920e-003
9.439920e-003
9.439988e-003
9.439992e-003
9.439996e-003
9.439992e-003
9.439962e-003
9.439875e-003
9.439674e-003
9.439258e-003
9.438462e-003
9.437028e-003
9.434569e-003
9.430544e-003
9.424236e-003
9.414784e-003
9.401291e-003
9.383057e-003
9.359991e-003
9.333198e-003
9.305681e-003
9.282983e-003
9.273525e-003
9.288401e-003
9.340528e-003
9.443222e-003
9.608508e-003
9.845523e-003
1.015936e-002
1.055059e-002
1.101539e-002
1.154631e-002
1.213328e-002
1.276475e-002
1.342869e-002
1.411333e-002
1.480765e-002
1.550170e-002
1.618669e-002
1.685510e-002
1.750071e-002
1.811861e-002
1.870506e-002
1.925735e-002
1.977355e-002
2.025214e-002
2.069170e-002
2.109050e-002
2.144621e-002
2.175556e-002
2.201416e-002
2.221633e-002
2.235511e-002
2.242227e-002
2.240856e-002
2.230405e-002
2.209865e-002
2.178287e-002
2.134880e-002
2.079121e-002
2.010898e-002
1.930648e-002
1.839483e-002
1.739288e-002
1.632739e-002
1.523228e-002
1.414665e-002
1.311167e-002
1.216645e-002
1.134360e-002
1.066512e-002
1.013977e-002
9.762470e-003
9.516097e-003
9.375386e-003
9.311799e-003
9.298193e-003
9.312171e-003
9.337618e-003
9.364558e-003
9.387932e-003
9.405993e-003
9.418855e-003
9.427445e-003
9.432877e-003
9.436142e-003
9.438009e-003
9.439024e-003
9.439543e-003
9.439791e-003
9.439898e-003
9.439936e-003
9.439943e-003
9.439940e-003
9.439934e-003
9.439929e-003
9.439926e-003
9.439924e-003
9.439922e-003
9.439921e-003
9.439920e-003
9.439920e-003
9.440011e-003
9.440013e-003
9.440007e-003
9.439978e-003
9.439892e-003
9.439689e-003
9.439261e-003
9.438423e-003
9.436875e-003
9.434154e-003
9.429587e-003
9.422259e-003
9.411037e-003
9.394719e-003
9.372412e-003
9.344266e-003
9.312633e-003
9.283622e-003
9.268739e-003
9.286062e-003
9.360290e-003
9.521173e-003
9.800317e-003
1.022693e-002
1.082348e-002
1.160235e-002
1.256417e-002
1.369807e-002
1.498360e-002
1.639358e-002
1.789734e-002
1.946362e-002
2.106283e-002
2.266838e-002
2.425734e-002
2.581058e-002
2.731254e-002
2.875104e-002
3.011699e-002
3.140407e-002
3.260835e-002
3.372778e-002
3.476162e-002
3.570966e-002
3.657163e-002
3.734642e-002
3.803151e-002
3.862244e-002
3.911243e-002
3.949210e-002
3.974938e-002
3.986951e-002
3.983532e-002
3.962763e-002
3.922602e-002
3.860982e-002
3.775963e-002
3.665924e-002
3.529808e-002
3.367410e-002
3.179689e-002
2.969073e-002
2.739680e-002
2.497402e-002
2.249767e-002
2.005515e-002
1.773864e-002
1.563534e-002
1.381653e-002
1.232782e-002
1.118315e-002
1.036457e-002
9.827999e-003
9.513560e-003
9.357393e-003
9.301796e-003
9.301485e-003
9.325438e-003
9.355329e-003
9.382196e-003
9.402927e-003
9.417457e-003
9.426942e-003
9.432784e-003
9.436199e-003
9.438095e-003
9.439094e-003
9.439589e-003
9.439815e-003
9.439908e-003
9.439939e-003
9.439943e-003
9.439939e-003
9.439933e-003
9.439928e-003
9.439925e-003
9.439923e-003
9.439922e-003
9.439921e-003
9.439920e-003
9.440034e-003
9.440027e-003
9.440000e-003
9.439920e-003
9.439727e-003
9.439309e-003
9.438471e-003
9.436886e-003
9.434030e-003
9.429116e-003
9.421034e-003
9.408365e-003
9.389567e-003
9.363514e-003
9.330672e-003
9.295172e-003
9.267863e-003
9.269984e-003
9.336414e-003
9.516910e-003
9.873832e-003
1.047569e-002
1.138738e-002
1.265927e-002
1.431822e-002
1.636265e-002
1.876286e-002
2.146595e-002
2.440368e-002
2.750107e-002
3.068425e-002
3.388612e-002
3.704979e-002
4.012968e-002
4.309114e-002
4.590917e-002
4.856683e-002
5.105381e-002
5.336520e-002
5.550037e-002
5.746199e-002
5.925490e-002
6.088512e-002
6.235871e-002
6.368076e-002
6.485449e-002
6.588036e-002
6.675553e-002
6.747329e-002
6.802273e-002
6.838853e-002
6.855083e-002
6.848527e-002
6.816322e-002
6.755218e-002
6.661654e-002
6.531887e-002
6.362191e-002
6.149149e-002
5.890070e-002
5.583529e-002
5.230022e-002
4.832691e-002
4.397997e-002
3.936174e-002
3.461249e-002
2.990388e-002
2.542412e-002
2.135567e-002
1.784887e-002
1.499829e-002
1.282876e-002
1.129628e-002
1.030357e-002
9.725074e-003
9.433038e-003
9.317550e-003
9.296655e-003
9.317118e-003
9.349119e-003
9.378805e-003
9.401555e-003
9.417181e-003
9.427125e-003
9.433081e-003
9.436460e-003
9.438281e-003
9.439208e-003
9.439650e-003
9.439845e-003
9.439920e-003
9.439941e-003
9.439942e-003
9.439937e-003
9.439931e-003
9.439927e-003
9.439924e-003
9.439922e-003
9.439921e-003
9.439921e-003
9.440049e-003
9.440025e-003
9.439954e-003
9.439779e-003
9.439393e-003
9.438599e-003
9.437058e-003
9.434213e-003
9.429192e-003
9.420725e-003
9.407120e-003
9.386465e-003
9.357324e-003
9.320412e-003
9.281868e-003
9.258593e-003
9.285448e-003
9.422724e-003
9.760769e-003
1.041790e-002
1.152887e-002
1.322431e-002
1.560558e-002
1.872215e-002
2.255867e-002
2.703555e-002
3.202203e-002
3.735712e-002
4.287226e-002
4.841034e-002
5.383854e-002
5.905432e-002
6.398573e-002
6.858809e-002
7.283880e-002
7.673186e-002
8.027308e-002
8.347614e-002
8.635972e-002
8.894532e-002
9.125561e-002
9.331305e-002
9.513880e-002
9.675177e-002
9.816785e-002
9.939927e-002
1.004542e-001
1.013362e-001
1.020444e-001
1.025727e-001
1.029099e-001
1.030393e-001
1.029381e-001
1.025773e-001
1.019205e-001
1.009237e-001
9.953469e-002
9.769267e-002
9.532951e-002
9.237196e-002
8.874653e-002
8.438779e-002
7.925073e-002
7.332755e-002
6.666730e-002
5.939481e-002
5.172243e-002
4.394656e-002
3.642229e-002
2.951521e-002
2.353911e-002
1.869747e-002
1.504943e-002
1.251279e-002
1.090144e-002
9.981105e-003
9.522778e-003
9.338604e-003
9.295755e-003
9.312705e-003
9.346425e-003
9.378147e-003
9.402056e-003
9.418066e-003
9.427967e-003
9.433721e-003
9.436886e-003
9.438536e-003
9.439347e-003
9.439719e-003
9.439875e-003
9.439930e-003
9.439943e-003
9.439940e-003
9.439934e-003
9.439929e-003
9.439925e-003
9.439923e-003
9.439922e-003
9.439921e-003
9.440044e-003
9.439989e-003
9.439839e-003
9.439499e-003
9.438784e-003
9.437362e-003
9.434669e-003
9.429796e-003
9.421364e-003
9.407459e-003
9.385802e-003
9.354530e-003
9.314326e-003
9.272985e-003
9.253654e-003
9.307193e-003
9.526887e-003
1.006036e-002
1.111055e-002
1.291778e-002
1.572040e-002
1.970079e-002
2.493314e-002
3.135208e-002
3.875499e-002
4.683716e-002
5.524670e-002
6.364084e-002
7.172899e-002
7.929591e-002
8.620607e-002
9.239459e-002
9.785174e-002
1.026062e-001
1.067105e-001
1.102293e-001
1.132315e-001
1.157844e-001
1.179505e-001
1.197859e-001
1.213395e-001
1.226531e-001
1.237618e-001
1.246946e-001
1.254748e-001
1.261209e-001
1.266470e-001
1.270629e-001
1.273752e-001
1.275864e-001
1.276958e-001
1.276984e-001
1.275850e-001
1.273404e-001
1.269426e-001
1.263604e-001
1.255509e-001
1.244559e-001
1.229981e-001
1.210770e-001
1.185655e-001
1.153095e-001
1.111327e-001
1.058523e-001
9.930949e-002
9.141610e-002
8.221214e-002
7.191926e-002
6.096604e-002
4.995985e-002
3.959322e-002
3.050200e-002
2.312376e-002
1.761376e-002
1.385045e-002
1.151864e-002
1.022538e-002
9.600544e-003
9.355181e-003
9.296158e-003
9.311949e-003
9.347430e-003
9.380289e-003
9.404359e-003
9.419982e-003
9.429341e-003
9.434608e-003
9.437412e-003
9.438824e-003
9.439492e-003
9.439786e-003
9.439901e-003
9.439937e-003
9.439942e-003
9.439938e-003
9.439932e-003
9.439927e-003
9.439925e-003
9.439923e-003
9.439921e-003
9.439999e-003
9.439891e-003
9.439609e-003
9.438996e-003
9.437748e-003
9.435326e-003
9.430830e-003
9.422845e-003
9.409316e-003
9.387647e-003
9.355450e-003
9.312919e-003
9.268472e-003
9.249960e-003
9.323298e-003
9.617586e-003
1.034980e-002
1.183477e-002
1.446215e-002
1.862843e-002
2.463063e-002
3.255409e-002
4.220215e-002
5.310529e-002
6.461282e-002
7.603073e-002
8.675345e-002
9.634890e-002
1.045848e-001
1.114074e-001
1.168934e-001
1.211967e-001
1.245033e-001
1.270012e-001
1.288625e-001
1.302355e-001
1.312416e-001
1.319764e-001
1.325124e-001
1.329034e-001
1.331883e-001
1.333954e-001
1.335447e-001
1.336509e-001
1.337245e-001
1.337735e-001
1.338037e-001
1.338193e-001
1.338231e-001
1.338171e-001
1.338017e-001
1.337764e-001
1.337391e-001
1.336855e-001
1.336094e-001
1.335007e-001
1.333448e-001
1.331201e-001
1.327948e-001
1.323215e-001
1.316280e-001
1.306039e-001
1.290810e-001
1.268115e-001
1.234558e-001
1.185970e-001
1.118083e-001
1.027807e-001
9.149269e-002
7.835558e-002
6.424385e-002
5.034472e-002
3.785529e-002
2.765412e-002
2.010209e-002
1.505060e-002
1.201388e-002
1.039131e-002
9.640211e-003
9.359301e-003
9.296270e-003
9.314746e-003
9.352050e-003
9.384981e-003
9.408158e-003
9.422663e-003