# vtk DataFile Version 3.0
vtk output
ASCII
DATASET STRUCTURED_POINTS
DIMENSIONS 100 100 1
SPACING 1 1 1
ORIGIN 0 0 0
POINT_DATA 10000
SCALARS SFBox_profile double
LOOKUP_TABLE default 
0.000000e+000
0.000000e+000
0.000000e+000
0.000000e+000
0.000000e+000
0.000000e+000
0.000000e+000
0.000000e+000
0.000000e+000
0.000000e+000
0.000000e+000
0.000000e+000
0.000000e+000
0.000000e+000
0.000000e+000
0.000000e+000
0.000000e+000
0.000000e+000
0.000000e+000
0.000000e+000
0.000000e+000
0.000000e+000
0.000000e+000
0.000000e+000
0.000000e+000
0.000000e+000
0.000000e+000
0.000000e+000
0.000000e+000
0.000000e+000
0.000000e+000
0.000000e+000
0.000000e+000
0.000000e+000
0.000000e+000
0.000000e+000
0.000000e+000
0.000000e+000
0.000000e+000
0.000000e+000
0.000000e+000
0.000000e+000
0.000000e+000
0.000000e+000
0.000000e+000
0.000000e+000
0.000000e+000
0.000000e+000
0.000000e+000
0.000000e+000
0.000000e+000
0.000000e+000
0.000000e+000
0.000000e+000
0.000000e+000
0.000000e+000
0.000000e+000
0.000000e+000
0.000000e+000
0.000000e+000
0.000000e+000
0.000000e+000
0.000000e+000
0.000000e+000
0.000000e+000
0.000000e+000
0.000000e+000
0.000000e+000
0.000000e+000
0.000000e+000
0.000000e+000
0.000000e+000
0.000000e+000
0.000000e+000
0.000000e+000
0.000000e+000
0.000000e+000
0.000000e+000
0.000000e+000
0.000000e+000
0.000000e+000
0.000000e+000
0.000000e+000
0.000000e+000
0.000000e+000
0.000000e+000
0.000000e+000
0.000000e+000
0.000000e+000
0.000000e+000
0.000000e+000
0.000000e+000
0.000000e+000
0.000000e+000
0.000000e+000
0.000000e+000
0.000000e+000
0.000000e+000
0.000000e+000
0.000000e+000
8.164507e-009
3.010888e-009
-3.710580e-009
-7.677885e-009
-6.652680e-009
-1.722116e-009
3.734309e-009
6.457180e-009
5.334781e-009
1.720755e-009
-1.927894e-009
-3.857521e-009
-3.888566e-009
-2.911046e-009
-1.737197e-009
-4.475088e-010
1.273012e-009
3.327497e-009
4.871339e-009
4.858496e-009
2.960023e-009
-4.552326e-011
-2.801745e-009
-4.338348e-009
-4.607700e-009
-4.195682e-009
-3.605060e-009
-2.842176e-009
-1.630649e-009
8.844069e-011
1.943613e-009
3.405217e-009
4.214523e-009
4.520926e-009
4.633406e-009
4.692474e-009
4.597247e-009
4.205271e-009
3.542799e-009
2.802143e-009
2.164952e-009
1.663238e-009
1.210894e-009
7.387470e-010
2.763506e-010
-8.786527e-011
-3.000576e-010
-3.839499e-010
-4.031916e-010
-3.954943e-010
-3.426664e-010
-1.951777e-010
7.725730e-011
4.531631e-010
8.727463e-010
1.289259e-009
1.711730e-009
2.188886e-009
2.736414e-009
3.278960e-009
3.682130e-009
3.858326e-009
3.833327e-009
3.683859e-009
3.401731e-009
2.849360e-009
1.893065e-009
5.941535e-010
-7.613626e-010
-1.859497e-009
-2.585480e-009
-3.024488e-009
-3.223033e-009
-2.995465e-009
-2.052554e-009
-3.806147e-010
1.524499e-009
2.878128e-009
3.142130e-009
2.388147e-009
1.149645e-009
-6.502900e-011
-1.089651e-009
-1.946830e-009
-2.464053e-009
-2.184635e-009
-7.947255e-010
1.314834e-009
2.997501e-009
3.055513e-009
1.216652e-009
-1.460439e-009
-3.206248e-009
-2.798559e-009
-5.021947e-010
2.067127e-009
3.092597e-009
1.874218e-009
-6.651276e-010
-2.658957e-009
1.144949e-009
3.295393e-010
-6.732750e-010
-1.124471e-009
-7.061800e-010
2.450909e-010
9.809203e-010
9.041520e-010
4.339229e-011
-9.393734e-010
-1.246128e-009
-5.737698e-010
6.295343e-010
1.504762e-009
1.446638e-009
5.423161e-010
-5.662134e-010
-1.238507e-009
-1.300225e-009
-1.030579e-009
-7.599638e-010
-5.194570e-010
-8.359232e-011
6.823819e-010
1.569088e-009
2.141531e-009
2.105983e-009
1.548189e-009
8.158220e-010
1.903715e-010
-3.122007e-010
-8.415203e-010
-1.466507e-009
-2.062393e-009
-2.432101e-009
-2.503056e-009
-2.382228e-009
-2.230300e-009
-2.109392e-009
-1.962039e-009
-1.717219e-009
-1.389202e-009
-1.067610e-009
-8.287073e-010
-6.733520e-010
-5.491420e-010
-4.184348e-010
-2.966505e-010
-2.306179e-010
-2.493107e-010
-3.376415e-010
-4.535806e-010
-5.684430e-010
-6.925760e-010
-8.620766e-010
-1.095858e-009
-1.363242e-009
-1.599218e-009
-1.759302e-009
-1.857692e-009
-1.939096e-009
-2.005403e-009
-1.980833e-009
-1.770471e-009
-1.361645e-009
-8.538136e-010
-3.699577e-010
5.887006e-011
4.971172e-010
9.768932e-010
1.382157e-009
1.499522e-009
1.212628e-009
6.410672e-010
6.146929e-011
-3.224268e-010
-5.215193e-010
-6.653318e-010
-7.835439e-010
-7.270625e-010
-3.418070e-010
2.834968e-010
7.872624e-010
8.062286e-010
3.110409e-010
-3.264408e-010
-6.250311e-010
-3.930155e-010
1.237499e-010
4.699418e-010
3.714931e-010
-5.392604e-011
-4.275470e-010
-4.402381e-010
-9.389510e-011
3.267439e-010
4.960696e-010
2.941838e-010
-1.209186e-010
-4.438900e-010
-6.841778e-009
-2.606970e-009
2.952977e-009
6.344306e-009
5.742376e-009
1.925171e-009
-2.570471e-009
-5.252382e-009
-5.090259e-009
-2.714083e-009
4.177120e-010
3.022731e-009
4.450210e-009
4.531534e-009
3.288625e-009
9.088673e-010
-2.060985e-009
-4.674336e-009
-5.930843e-009
-5.316927e-009
-3.102433e-009
-1.449896e-010
2.622726e-009
4.611798e-009
5.645771e-009
5.768424e-009
5.063406e-009
3.641572e-009
1.719395e-009
-3.744371e-010
-2.310089e-009
-3.880839e-009
-5.026463e-009
-5.760121e-009
-6.096677e-009
-6.050858e-009
-5.676745e-009
-5.077703e-009
-4.364869e-009
-3.610343e-009
-2.844112e-009
-2.088782e-009
-1.385108e-009
-7.798884e-010
-2.961482e-010
7.595919e-011
3.567865e-010
5.496101e-010
6.375375e-010
6.051682e-010
4.584200e-010
2.199822e-010
-9.357512e-011
-4.864370e-010
-9.723983e-010
-1.548658e-009
-2.183091e-009
-2.828853e-009
-3.449009e-009
-4.020546e-009
-4.510582e-009
-4.853113e-009
-4.958751e-009
-4.754342e-009
-4.213190e-009
-3.347985e-009
-2.186443e-009
-7.750476e-010
7.794109e-010
2.278853e-009
3.466482e-009
4.112597e-009
4.085261e-009
3.360338e-009
2.005374e-009
2.027921e-010
-1.694483e-009
-3.176159e-009
-3.741156e-009
-3.157064e-009
-1.624723e-009
2.955789e-010
1.947562e-009
2.836908e-009
2.739660e-009
1.695301e-009
7.888827e-012
-1.730306e-009
-2.741547e-009
-2.415331e-009
-7.725285e-010
1.344402e-009
2.657930e-009
2.283682e-009
4.225750e-010
-1.673141e-009
-2.538687e-009
-1.564794e-009
5.228681e-010
2.177527e-009
-8.994406e-009
-3.177235e-009
4.272694e-009
8.418921e-009
6.916752e-009
1.318313e-009
-4.388688e-009
-6.720940e-009
-4.899364e-009
-8.619834e-010
2.585084e-009
3.820404e-009
3.113545e-009
1.750949e-009
6.602281e-010
-1.840636e-010
-1.233668e-009
-2.485261e-009
-3.240958e-009
-2.740617e-009
-9.744009e-010
1.173240e-009
2.594442e-009
2.789635e-009
2.103692e-009
1.242783e-009
6.239295e-010
1.677698e-010
-3.855510e-010
-1.071090e-009
-1.633957e-009
-1.805131e-009
-1.570320e-009
-1.154630e-009
-7.863404e-010
-5.147637e-010
-2.467301e-010
8.967130e-011
4.524540e-010
7.420403e-010
9.106402e-010
9.965229e-010
1.064888e-009
1.139947e-009
1.199966e-009
1.221469e-009
1.210485e-009
1.191634e-009
1.180582e-009
1.175270e-009
1.167474e-009
1.152133e-009
1.124650e-009
1.078336e-009
1.010701e-009
9.269522e-010
8.279870e-010
6.954674e-010
5.008083e-010
2.380932e-010
-5.761807e-011
-3.386451e-010
-5.933872e-010
-8.501919e-010
-1.114620e-009
-1.308206e-009
-1.298709e-009
-1.016001e-009
-5.325490e-010
-3.421058e-012
4.810099e-010
9.532227e-010
1.442713e-009
1.798791e-009
1.704075e-009
9.443949e-010
-3.036364e-010
-1.490684e-009
-2.063987e-009
-1.861085e-009
-1.149964e-009
-2.990289e-010
5.421974e-010
1.389396e-009
2.081441e-009
2.123677e-009
1.049823e-009
-9.486490e-010
-2.799081e-009
-3.152887e-009
-1.470326e-009
1.333754e-009
3.365458e-009
3.116096e-009
6.720107e-010
-2.241844e-009
-3.499910e-009
-2.175611e-009
7.374235e-010
3.058374e-009
-3.611157e-009
-9.472246e-010
2.242566e-009
3.528550e-009
2.017324e-009
-1.008545e-009
-3.107952e-009
-2.589356e-009
1.562281e-010
2.952233e-009
3.548935e-009
1.390628e-009
-1.981056e-009
-4.180883e-009
-3.811373e-009
-1.363171e-009
1.443671e-009
3.136550e-009
3.437416e-009
2.987445e-009
2.365679e-009
1.490214e-009
-5.941188e-011
-2.277774e-009
-4.425263e-009
-5.524317e-009
-5.140592e-009
-3.665708e-009
-1.876254e-009
-2.732493e-010
1.153930e-009
2.615084e-009
4.096550e-009
5.292320e-009
5.899951e-009
5.907268e-009
5.567583e-009
5.136833e-009
4.677892e-009
4.108794e-009
3.384680e-009
2.591621e-009
1.873820e-009
1.308786e-009
8.721654e-010
5.058728e-010
1.938284e-010
-3.034880e-011
-1.276948e-010
-8.935804e-011
6.486771e-011
3.068261e-010
6.165808e-010
9.916230e-010
1.447128e-009
1.996751e-009
2.618397e-009
3.240580e-009
3.779694e-009
4.199239e-009
4.516976e-009
4.732032e-009
4.749394e-009
4.411662e-009
3.637718e-009
2.525356e-009
1.285209e-009
6.120391e-011
-1.150505e-009
-2.361132e-009
-3.375233e-009
-3.789975e-009
-3.293826e-009
-1.996453e-009
-4.251078e-010
8.552794e-010
1.627793e-009
2.017918e-009
2.132522e-009
1.800635e-009
7.809917e-010
-7.506700e-010
-2.025610e-009
-2.164928e-009
-9.706681e-010
7.465189e-010
1.722383e-009
1.264707e-009
-1.563708e-010
-1.304542e-009
-1.227187e-009
-4.311621e-011
1.198709e-009
1.431955e-009
4.571945e-010
-9.263216e-010
-1.600427e-009
-1.027626e-009
3.444848e-010
1.454631e-009
4.652951e-009
1.998167e-009
-1.598167e-009
-4.078198e-009
-4.279611e-009
-2.375335e-009
5.548045e-010
3.236206e-009
4.646583e-009
4.168270e-009
1.746999e-009
-1.862575e-009
-5.113800e-009
-6.302764e-009
-4.608939e-009
-7.605650e-010
3.330270e-009
5.784032e-009
5.874467e-009
4.188588e-009
1.843359e-009
-4.098892e-010
-2.406882e-009
-4.123310e-009
-5.235663e-009
-5.239918e-009
-3.970580e-009
-1.893925e-009
1.860317e-010
1.716724e-009
2.689928e-009
3.400157e-009
3.999509e-009
4.335809e-009
4.186528e-009
3.563466e-009
2.738837e-009
1.996923e-009
1.409907e-009
8.632107e-010
2.549033e-010
-3.730743e-010
-8.923327e-010
-1.231059e-009
-1.433054e-009
-1.590367e-009
-1.747235e-009
-1.876204e-009
-1.927092e-009
-1.880559e-009
-1.758842e-009
-1.600456e-009
-1.427765e-009
-1.226841e-009
-9.521376e-010
-5.622658e-010
-6.554827e-011
4.734881e-010
9.905699e-010
1.488998e-009
2.028921e-009
2.624971e-009
3.160047e-009
3.435453e-009
3.331003e-009
2.900690e-009
2.278148e-009
1.491202e-009
4.238963e-010
-9.814257e-010
-2.486966e-009
-3.586822e-009
-3.836622e-009
-3.176048e-009
-1.915463e-009
-4.220577e-010
1.118059e-009
2.584456e-009
3.628753e-009
3.655758e-009
2.267415e-009
-1.988713e-010
-2.628911e-009
-3.769683e-009
-3.074307e-009
-1.055377e-009
1.118549e-009
2.399569e-009
2.392510e-009
1.361282e-009
-8.996041e-011
-1.318152e-009
-1.812193e-009
-1.343885e-009
-1.387299e-010
1.115513e-009
1.611488e-009
9.879894e-010
-3.294811e-010
-1.379066e-009
9.002697e-009
3.035257e-009
-4.409104e-009
-8.239272e-009
-6.391881e-009
-8.774352e-010
4.221778e-009
5.892063e-009
3.967862e-009
5.150448e-010
-2.170960e-009
-3.092663e-009
-2.600189e-009
-1.460355e-009
-1.247727e-010
1.212595e-009
2.194957e-009
2.266251e-009
1.163171e-009
-6.465267e-010
-2.161033e-009
-2.564920e-009
-1.788557e-009
-4.043925e-010
9.462222e-010
1.978820e-009
2.696950e-009
3.067358e-009
2.900193e-009
2.062142e-009
7.175077e-010
-7.274692e-010
-1.929040e-009
-2.822110e-009
-3.534500e-009
-4.139688e-009
-4.544572e-009
-4.613781e-009
-4.350843e-009
-3.917835e-009
-3.487340e-009
-3.107755e-009
-2.720185e-009
-2.278854e-009
-1.826852e-009
-1.457769e-009
-1.227834e-009
-1.118808e-009
-1.076148e-009
-1.069015e-009
-1.114200e-009
-1.253103e-009
-1.508677e-009
-1.856729e-009
-2.234585e-009
-2.585382e-009
-2.901037e-009
-3.213816e-009
-3.530334e-009
-3.774051e-009
-3.814397e-009
-3.571582e-009
-3.085607e-009
-2.460381e-009
-1.739466e-009
-8.708494e-010
1.714724e-010
1.239349e-009
2.030249e-009
2.293975e-009
2.019274e-009
1.399985e-009
6.334830e-010
-1.950903e-010
-1.003332e-009
-1.544976e-009
-1.470489e-009
-6.445053e-010
5.961460e-010
1.570555e-009
1.715015e-009
9.700470e-010
-2.382290e-010
-1.335752e-009
-1.895842e-009
-1.695238e-009
-6.890611e-010
8.739125e-010
2.299413e-009
2.634401e-009
1.329781e-009
-1.083835e-009
-3.053701e-009
-3.037205e-009
-8.058653e-010
2.137154e-009
3.573565e-009
2.322993e-009
-7.192665e-010
-3.210249e-009
6.228818e-009
1.394212e-009
-4.162461e-009
-6.005290e-009
-2.918085e-009
2.303326e-009
5.304610e-009
3.744314e-009
-9.450948e-010
-4.918490e-009
-5.099180e-009
-1.486718e-009
3.163054e-009
5.719359e-009
4.944468e-009
1.896133e-009
-1.438776e-009
-3.734281e-009
-4.784630e-009
-4.850152e-009
-3.946647e-009
-1.893148e-009
1.105577e-009
4.174406e-009
6.204177e-009
6.586164e-009
5.518166e-009
3.657106e-009
1.559680e-009
-5.429668e-010
-2.559531e-009
-4.302893e-009
-5.511154e-009
-6.052581e-009
-6.028611e-009
-5.653860e-009
-5.070915e-009
-4.306319e-009
-3.375619e-009
-2.374241e-009
-1.441328e-009
-6.560927e-010
1.088024e-012
5.851992e-010
1.105088e-009
1.514407e-009
1.770278e-009
1.883202e-009
1.904969e-009
1.875078e-009
1.784280e-009
1.589046e-009
1.258765e-009
8.084168e-010
2.845189e-010
-2.826832e-010
-9.096438e-010
-1.632688e-009
-2.443588e-009
-3.257280e-009
-3.955177e-009
-4.460164e-009
-4.752871e-009
-4.804559e-009
-4.514634e-009
-3.754135e-009
-2.493934e-009
-8.793141e-010
8.376886e-010
2.425183e-009
3.699782e-009
4.439246e-009
4.352481e-009
3.251072e-009
1.308575e-009
-8.853110e-010
-2.606720e-009
-3.390097e-009
-3.177589e-009
-2.154246e-009
-5.615815e-010
1.240876e-009
2.610538e-009
2.774727e-009
1.423695e-009
-7.569485e-010
-2.310366e-009
-2.065440e-009
-1.969160e-010
1.756574e-009
2.113236e-009
5.207200e-010
-1.658871e-009
-2.482339e-009
-1.130751e-009
1.323064e-009
2.796173e-009
1.983409e-009
-4.991570e-010
-2.612552e-009
-1.041514e-009
-1.264574e-009
-9.707698e-010
4.331254e-010
2.513720e-009
3.770094e-009
2.687396e-009
-8.152041e-010
-4.808733e-009
-6.431422e-009
-4.035623e-009
1.292597e-009
6.255740e-009
7.677312e-009
4.804836e-009
-2.956287e-010
-4.484713e-009
-5.842622e-009
-4.614609e-009
-2.324038e-009
-2.274584e-010
1.392270e-009
2.733917e-009
3.682585e-009
3.707118e-009
2.479404e-009
4.030726e-010
-1.588612e-009
-2.744122e-009
-2.968995e-009
-2.654319e-009
-2.160758e-009
-1.536115e-009
-6.711870e-010
4.053430e-010
1.463972e-009
2.270744e-009
2.774424e-009
3.081814e-009
3.294364e-009
3.413123e-009
3.393583e-009
3.245454e-009
3.047342e-009
2.874460e-009
2.739740e-009
2.614340e-009
2.489249e-009
2.398503e-009
2.381417e-009
2.436280e-009
2.522399e-009
2.605554e-009
2.689528e-009
2.794552e-009
2.908483e-009
2.972386e-009
2.922642e-009
2.740592e-009
2.446072e-009
2.040921e-009
1.481432e-009
7.338838e-010
-1.407802e-010
-9.835083e-010
-1.637811e-009
-2.039081e-009
-2.174625e-009
-1.966741e-009
-1.267643e-009
-4.898707e-011
1.395605e-009
2.510061e-009
2.821369e-009
2.254697e-009
1.099300e-009
-3.035797e-010
-1.746567e-009
-2.982002e-009
-3.473769e-009
-2.580557e-009
-2.203533e-010
2.622806e-009
4.271654e-009
3.548167e-009
8.146266e-010
-2.147460e-009
-3.440130e-009
-2.460071e-009
-2.315553e-010
1.547946e-009
1.846918e-009
9.029590e-010
-2.555262e-010
-7.702046e-010
-5.333253e-010
-3.140782e-011
2.269491e-010
1.318881e-010
-5.684478e-011
-7.082592e-009
-2.532340e-009
3.131661e-009
6.127113e-009
5.040056e-009
1.336564e-009
-2.301501e-009
-4.016833e-009
-3.547035e-009
-1.646917e-009
7.349599e-010
2.706787e-009
3.370655e-009
2.135026e-009
-6.051966e-010
-3.264105e-009
-3.963924e-009
-1.997343e-009
1.482855e-009
4.293872e-009
4.872783e-009
3.267006e-009
6.972961e-010
-1.662658e-009
-3.427652e-009
-4.723950e-009
-5.498646e-009
-5.324799e-009
-3.876994e-009
-1.434678e-009
1.210698e-009
3.342629e-009
4.765457e-009
5.700202e-009
6.353668e-009
6.673830e-009
6.495952e-009
5.819413e-009
4.868961e-009
3.904426e-009
3.029254e-009
2.198853e-009
1.369721e-009
5.917432e-010
-4.249682e-011
-4.959530e-010
-8.058170e-010
-1.017095e-009
-1.127410e-009
-1.105644e-009
-9.440980e-010
-6.688794e-010
-3.002344e-010
1.747819e-010
7.747444e-010
1.478279e-009
2.226826e-009
2.976269e-009
3.722530e-009
4.450556e-009
5.062882e-009
5.393330e-009
5.317314e-009
4.836343e-009
4.023898e-009
2.895035e-009
1.390326e-009
-4.500855e-010
-2.305819e-009
-3.649653e-009
-4.078865e-009
-3.587998e-009
-2.491878e-009
-1.102539e-009
4.323891e-010
1.923969e-009
2.876134e-009
2.648883e-009
1.073705e-009
-1.089862e-009
-2.485383e-009
-2.160937e-009
-3.723845e-010
1.584310e-009
2.384269e-009
1.624851e-009
-4.950329e-011
-1.578389e-009
-2.190070e-009
-1.672486e-009
-2.895122e-010
1.337230e-009
2.348950e-009
2.010704e-009
3.017529e-010
-1.780423e-009
-2.737516e-009
-1.724782e-009
6.188565e-010
2.535009e-009
-7.863821e-009
-1.489443e-009
5.546587e-009
7.401387e-009
3.016184e-009
-3.409062e-009
-6.403193e-009
-3.856052e-009
1.672867e-009
5.623989e-009
5.277119e-009
1.425904e-009
-2.994491e-009
-5.465443e-009
-5.268771e-009
-3.064208e-009
1.676233e-010
3.546085e-009
6.067713e-009
6.623248e-009
4.665097e-009
8.711508e-010
-3.080487e-009
-5.598183e-009
-6.143319e-009
-5.227743e-009
-3.627444e-009
-1.730336e-009
3.993636e-010
2.554807e-009
4.219547e-009
4.919773e-009
4.644014e-009
3.822303e-009
2.904538e-009
2.021125e-009
1.053285e-009
-5.633960e-011
-1.149547e-009
-1.998919e-009
-2.532486e-009
-2.867219e-009
-3.147129e-009
-3.400734e-009
-3.565277e-009
-3.606236e-009
-3.571111e-009
-3.532001e-009
-3.512774e-009
-3.490589e-009
-3.447285e-009
-3.388942e-009
-3.314634e-009
-3.194473e-009
-2.997486e-009
-2.726216e-009
-2.395467e-009
-1.975338e-009
-1.388387e-009
-5.934234e-010
3.369257e-010
1.256295e-009
2.070971e-009
2.788312e-009
3.397676e-009
3.719298e-009
3.446954e-009
2.407113e-009
7.743616e-010
-1.011831e-009
-2.549579e-009
-3.646587e-009
-4.175101e-009
-3.858168e-009
-2.388105e-009
1.142071e-010
2.801380e-009
4.436111e-009
4.205131e-009
2.304006e-009
-2.321141e-010
-2.244160e-009
-3.045271e-009
-2.523489e-009
-9.804555e-010
9.295748e-010
2.238296e-009
2.065858e-009
3.715904e-010
-1.661809e-009
-2.323455e-009
-8.520275e-010
1.639858e-009
2.911940e-009
1.592032e-009
-1.390887e-009
-3.443510e-009
-2.612887e-009
5.405576e-010
3.330952e-009
-3.662218e-009
6.266749e-010
4.650963e-009
4.077170e-009
-1.034001e-009
-6.178956e-009
-6.474079e-009
-1.109945e-009
5.812452e-009
8.759442e-009
5.403214e-009
-1.626913e-009
-7.174602e-009
-7.748759e-009
-3.816374e-009
1.345407e-009
4.614339e-009
5.000138e-009
3.376949e-009
1.017556e-009
-1.319194e-009
-3.194257e-009
-4.030920e-009
-3.280047e-009
-1.036478e-009
1.756189e-009
3.894184e-009
4.726030e-009
4.386333e-009
3.344759e-009
1.886547e-009
6.791103e-011
-1.971900e-009
-3.852719e-009
-5.174515e-009
-5.827419e-009
-6.010384e-009
-5.961096e-009
-5.732663e-009
-5.246914e-009
-4.499448e-009
-3.641531e-009
-2.859783e-009
-2.226090e-009
-1.693277e-009
-1.209890e-009
-7.980970e-010
-5.194161e-010
-4.022116e-010
-4.283095e-010
-5.740580e-010
-8.336339e-010
-1.199820e-009
-1.650026e-009
-2.168770e-009
-2.764592e-009
-3.432881e-009
-4.099993e-009
-4.635533e-009
-4.941634e-009
-5.011091e-009
-4.863641e-009
-4.431591e-009
-3.565230e-009
-2.202732e-009
-5.269042e-010
1.093661e-009
2.337394e-009
3.073238e-009
3.260369e-009
2.782812e-009
1.521197e-009
-3.367341e-010
-2.124630e-009
-2.988713e-009
-2.469203e-009
-8.350523e-010
1.129480e-009
2.617413e-009
3.092056e-009
2.292340e-009
2.889025e-010
-2.245653e-009
-3.971300e-009
-3.553164e-009
-8.396571e-010
2.562026e-009
4.220701e-009
2.839952e-009
-4.829342e-010
-3.042214e-009
-2.833355e-009
-3.105319e-010
2.083540e-009
2.207042e-009
1.692059e-010
-1.893028e-009
-1.946351e-009
-1.323231e-011
1.924454e-009
2.135641e-009
1.807860e-009
7.165189e-010
-1.276822e-009
-3.339840e-009
-3.901329e-009
-1.902131e-009
1.893147e-009
4.919560e-009
4.626704e-009
7.863635e-010
-3.869053e-009
-5.623810e-009
-2.887846e-009
2.328775e-009
6.006453e-009
5.393591e-009
1.061699e-009
-3.914338e-009
-6.588211e-009
-6.087976e-009
-3.461871e-009
-1.974241e-010
2.849138e-009
5.338957e-009
6.852891e-009
6.820038e-009
5.052479e-009
2.122938e-009
-9.520423e-010
-3.397548e-009
-5.021728e-009
-5.975636e-009
-6.350829e-009
-6.092637e-009
-5.216955e-009
-3.957468e-009
-2.634774e-009
-1.426902e-009
-3.204142e-010
7.373650e-010
1.703352e-009
2.473675e-009
3.006938e-009
3.365277e-009
3.637002e-009
3.852885e-009
3.988778e-009
4.022768e-009
3.963574e-009
3.831119e-009
3.634957e-009
3.375878e-009
3.046684e-009
2.617718e-009
2.039259e-009
1.284195e-009
3.876140e-010
-5.794509e-010
-1.580668e-009
-2.627254e-009
-3.687049e-009
-4.591313e-009
-5.078307e-009
-4.956968e-009
-4.211218e-009
-2.929985e-009
-1.185710e-009
9.252986e-010
3.087891e-009
4.697569e-009
5.125895e-009
4.145825e-009
2.104973e-009
-3.115414e-010
-2.434015e-009
-3.719748e-009
-3.696391e-009
-2.131341e-009
5.033595e-010
2.839874e-009
3.303226e-009
1.404448e-009
-1.548700e-009
-3.265528e-009
-2.338957e-009
4.878055e-010
2.906204e-009
3.014473e-009
8.861079e-010
-1.645881e-009
-2.664622e-009
-1.701639e-009
1.545687e-010
1.421404e-009
1.439623e-009
6.311723e-010
-1.736595e-010
-5.262722e-010
-5.550674e-010
6.122474e-009
1.201693e-009
-4.172971e-009
-5.579543e-009
-2.385994e-009
2.238696e-009
4.514685e-009
3.122773e-009
-3.905123e-010
-3.467023e-009
-4.422170e-009
-2.948165e-009
3.055481e-010
4.029224e-009
6.368939e-009
5.607061e-009
1.480457e-009
-4.053174e-009
-7.781152e-009
-7.489432e-009
-3.582006e-009
1.404012e-009
4.855475e-009
5.772556e-009
4.773531e-009
2.905735e-009
7.279773e-010
-1.583773e-009
-3.666397e-009
-4.860829e-009
-4.706494e-009
-3.378427e-009
-1.528253e-009
2.615245e-010
1.803213e-009
3.156301e-009
4.315032e-009
5.131061e-009
5.491544e-009
5.465525e-009
5.235935e-009
4.931657e-009
4.567814e-009
4.128868e-009
3.656779e-009
3.238901e-009
2.935966e-009
2.748516e-009
2.647626e-009
2.618228e-009
2.670476e-009
2.823821e-009
3.085916e-009
3.435681e-009
3.819189e-009
4.171501e-009
4.452289e-009
4.649714e-009
4.731692e-009
4.600190e-009
4.127320e-009
3.259473e-009
2.073131e-009
7.098769e-010
-7.189881e-010
-2.107295e-009
-3.221928e-009
-3.674036e-009
-3.136654e-009
-1.645446e-009
3.424293e-010
2.213771e-009
3.492991e-009
3.863783e-009
3.041646e-009
9.030351e-010
-2.062825e-009
-4.535341e-009
-4.971623e-009
-2.811986e-009
7.988179e-010
3.645707e-009
4.058505e-009
2.123009e-009
-5.532073e-010
-2.199010e-009
-2.095918e-009
-7.550706e-010
7.474033e-010
1.499646e-009
1.116544e-009
-1.550339e-010
-1.476906e-009
-1.798172e-009
-6.329548e-010
1.317283e-009
2.485335e-009
1.725389e-009
-5.304111e-010
-2.475003e-009
6.862043e-009
-3.026099e-010
-7.186860e-009
-6.906953e-009
2.882173e-010
7.592865e-009
8.318265e-009
1.955597e-009
-5.883451e-009
-8.903420e-009
-5.393254e-009
1.210652e-009
6.007522e-009
6.502412e-009
3.498958e-009
-6.326212e-010
-3.858192e-009
-5.051245e-009
-3.782893e-009
-4.134849e-010
3.589238e-009
6.050906e-009
5.434903e-009
2.022000e-009
-2.298851e-009
-5.486748e-009
-6.659395e-009
-6.159038e-009
-4.668634e-009
-2.521036e-009
1.819128e-010
3.091061e-009
5.534258e-009
6.955881e-009
7.314628e-009
6.985545e-009
6.335341e-009
5.467209e-009
4.339874e-009
3.010453e-009
1.681792e-009
5.421546e-010
-3.706887e-010
-1.130321e-009
-1.790554e-009
-2.326177e-009
-2.686697e-009
-2.869533e-009
-2.924373e-009
-2.898158e-009
-2.789947e-009
-2.559238e-009
-2.171475e-009
-1.632215e-009
-9.752858e-010
-2.170828e-010
6.684329e-010
1.710266e-009
2.865514e-009
3.996554e-009
4.941248e-009
5.597088e-009
5.903697e-009
5.739159e-009
4.896955e-009
3.254067e-009
9.936271e-010
-1.384106e-009
-3.320799e-009
-4.462263e-009
-4.652051e-009
-3.763104e-009
-1.747464e-009
9.937544e-010
3.378358e-009
4.089675e-009
2.562257e-009
-3.724209e-010
-2.919326e-009
-3.567498e-009
-2.087189e-009
4.966420e-010
2.718464e-009
3.473234e-009
2.382174e-009
-9.647445e-011
-2.675128e-009
-3.688979e-009
-2.203638e-009
9.258995e-010
3.307390e-009
2.890759e-009
-2.905399e-011
-2.801839e-009
-2.795960e-009
-5.815580e-012
2.811444e-009
2.817218e-009
-3.046809e-011
-2.886171e-009
4.694376e-009
-1.200237e-009
-6.340836e-009
-4.895718e-009
2.140632e-009
7.950642e-009
6.705604e-009
-6.885348e-010
-7.501113e-009
-7.636861e-009
-1.236943e-009
5.795873e-009
7.449730e-009
2.789022e-009
-3.903838e-009
-7.391762e-009
-5.682237e-009
-6.715923e-010
4.297953e-009
6.978258e-009
6.840662e-009
4.314867e-009
2.095714e-010
-4.207609e-009
-7.274091e-009
-7.714795e-009
-5.532999e-009
-1.996518e-009
1.356789e-009
3.706737e-009
5.054654e-009
5.620687e-009
5.390638e-009
4.266656e-009
2.450534e-009
4.743747e-010
-1.173274e-009
-2.367164e-009
-3.269828e-009
-4.019135e-009
-4.566920e-009
-4.801649e-009
-4.738483e-009
-4.534104e-009
-4.339590e-009
-4.187887e-009
-4.031677e-009
-3.854207e-009
-3.711529e-009
-3.671661e-009
-3.739341e-009
-3.856813e-009
-3.971427e-009
-4.082998e-009
-4.210898e-009
-4.319468e-009
-4.297438e-009
-4.029754e-009
-3.483966e-009
-2.701659e-009
-1.700903e-009
-4.307793e-010
1.117687e-009
2.743724e-009
4.033863e-009
4.587002e-009
4.249113e-009
3.106216e-009
1.295000e-009
-1.042121e-009
-3.514631e-009
-5.283375e-009
-5.359516e-009
-3.349675e-009
2.027009e-011
3.201360e-009
4.761217e-009
4.174285e-009
1.917435e-009
-9.286760e-010
-3.086742e-009
-3.440307e-009
-1.614090e-009
1.406771e-009
3.466269e-009
2.723922e-009
-5.350205e-010
-3.668192e-009
-3.790523e-009
-5.462073e-010
3.267035e-009
4.180864e-009
1.401714e-009
-2.362955e-009
-3.564883e-009
-1.323437e-009
1.811874e-009
2.610944e-009
5.148398e-010
-1.927304e-009
6.219980e-010
-8.660319e-010
-1.757216e-009
-4.850078e-010
1.991464e-009
2.931551e-009
7.413843e-010
-2.911522e-009
-4.278852e-009
-1.233806e-009
4.124207e-009
6.895849e-009
3.870084e-009
-3.171316e-009
-8.693886e-009
-8.181731e-009
-1.978685e-009
5.259856e-009
8.653505e-009
6.743808e-009
1.732280e-009
-3.057676e-009
-5.612279e-009
-5.675404e-009
-3.803954e-009
-6.554380e-010
2.917827e-009
5.717927e-009
6.674499e-009
5.563397e-009
3.115754e-009
3.572694e-010
-2.103179e-009
-4.159301e-009
-5.795300e-009
-6.811349e-009
-6.992441e-009
-6.406883e-009
-5.404529e-009
-4.320218e-009
-3.249446e-009
-2.126433e-009
-9.478281e-010
1.489670e-010
1.014368e-009
1.627282e-009
2.074989e-009
2.420333e-009
2.629536e-009
2.633327e-009
2.423788e-009
2.059767e-009
1.582376e-009
9.580115e-010
1.286948e-010
-8.904634e-010
-1.992823e-009
-3.068390e-009
-4.079965e-009
-5.008550e-009
-5.720543e-009
-5.942683e-009
-5.428811e-009
-4.160596e-009
-2.354525e-009
-2.807939e-010
1.845180e-009
3.729176e-009
4.828812e-009
4.517547e-009
2.599699e-009
-3.017686e-010
-2.955396e-009
-4.215036e-009
-3.602919e-009
-1.397426e-009
1.574142e-009
4.096167e-009
4.804226e-009
2.887987e-009
-9.633244e-010
-4.423914e-009
-4.966048e-009
-2.034496e-009
2.113989e-009
4.118173e-009
2.478678e-009
-1.045889e-009
-3.110484e-009
-1.965124e-009
9.916883e-010
2.776980e-009
1.816250e-009
-6.831325e-010
-2.209720e-009
-1.544883e-009
2.342938e-010
1.185268e-009
6.242789e-010
-3.525261e-010
-4.129815e-009
8.769913e-011
4.262418e-009
4.419218e-009
4.895972e-010
-4.028984e-009
-5.473119e-009
-2.928110e-009
1.622766e-009
5.188903e-009
5.664618e-009
2.712134e-009
-2.133003e-009
-5.985176e-009
-6.083152e-009
-1.860285e-009
4.044938e-009
7.323560e-009
5.318257e-009
-7.086453e-010
-6.544189e-009
-8.388164e-009
-5.540175e-009
-2.449145e-010
4.580701e-009
7.306714e-009
7.785876e-009
6.439684e-009
3.671934e-009
4.879902e-011
-3.471721e-009
-5.884665e-009
-6.748933e-009
-6.344745e-009
-5.228326e-009
-3.736995e-009
-1.947157e-009
3.655846e-011
1.933304e-009
3.461236e-009
4.564661e-009
5.391629e-009
6.074131e-009
6.597083e-009
6.887720e-009
6.967733e-009
6.962559e-009
6.974267e-009
6.994983e-009
6.962571e-009
6.866926e-009
6.760532e-009
6.666111e-009
6.513655e-009
6.196232e-009
5.670678e-009
4.963849e-009
4.072959e-009
2.905638e-009
1.373666e-009
-4.478130e-010
-2.293485e-009
-3.859533e-009
-4.944646e-009
-5.400569e-009
-4.994023e-009
-3.465654e-009
-8.553981e-010
2.229609e-009
4.773020e-009
5.870614e-009
5.160800e-009
2.869228e-009
-3.395177e-010
-3.403705e-009
-4.958274e-009
-3.933759e-009
-5.652484e-010
3.175265e-009
4.647962e-009
2.635856e-009
-1.394027e-009
-4.298180e-009
-3.858529e-009
-6.287329e-010
2.682452e-009
3.625200e-009
1.924805e-009
-6.834742e-010
-2.185865e-009
-1.829841e-009
-3.227094e-010
1.042687e-009
1.367534e-009
6.010587e-010
-5.754173e-010
-1.243546e-009
-8.837130e-010
2.177212e-010
1.159496e-009
-7.845404e-009
7.152415e-010
8.525114e-009
7.501149e-009
-1.122881e-009
-8.642706e-009
-7.980763e-009
-3.291874e-010
6.856548e-009
7.451481e-009
1.864342e-009
-4.468566e-009
-6.527966e-009
-3.452097e-009
1.955847e-009
6.054926e-009
6.565044e-009
3.210605e-009
-2.423575e-009
-7.411910e-009
-8.784992e-009
-5.425215e-009
8.803536e-010
6.505782e-009
8.529732e-009