# vtk DataFile Version 3.0
vtk output
ASCII
DATASET STRUCTURED_POINTS
DIMENSIONS 100 100 1
SPACING 1 1 1
ORIGIN 0 0 0
POINT_DATA 10000
SCALARS SFBox_profile double
LOOKUP_TABLE default 
9.439931e-003
9.439933e-003
9.439937e-003
9.439943e-003
9.439952e-003
9.439963e-003
9.439976e-003
9.439989e-003
9.439998e-003
9.439995e-003
9.439967e-003
9.439894e-003
9.439745e-003
9.439480e-003
9.439044e-003
9.438368e-003
9.437371e-003
9.435963e-003
9.434052e-003
9.431546e-003
9.428369e-003
9.424463e-003
9.419801e-003
9.414384e-003
9.408248e-003
9.401460e-003
9.394110e-003
9.386306e-003
9.378163e-003
9.369798e-003
9.361318e-003
9.352818e-003
9.344377e-003
9.336057e-003
9.327904e-003
9.319946e-003
9.312200e-003
9.304673e-003
9.297369e-003
9.290283e-003
9.283413e-003
9.276755e-003
9.270311e-003
9.264082e-003
9.258074e-003
9.252298e-003
9.246766e-003
9.241497e-003
9.236509e-003
9.231828e-003
9.227480e-003
9.223494e-003
9.219903e-003
9.216742e-003
9.214048e-003
9.211864e-003
9.210233e-003
9.209203e-003
9.208827e-003
9.209160e-003
9.210262e-003
9.212198e-003
9.215038e-003
9.218852e-003
9.223716e-003
9.229700e-003
9.236872e-003
9.245282e-003
9.254960e-003
9.265899e-003
9.278043e-003
9.291274e-003
9.305401e-003
9.320161e-003
9.335222e-003
9.350203e-003
9.364703e-003
9.378333e-003
9.390759e-003
9.401730e-003
9.411097e-003
9.418825e-003
9.424978e-003
9.429702e-003
9.433196e-003
9.435681e-003
9.437377e-003
9.438485e-003
9.439174e-003
9.439578e-003
9.439799e-003
9.439908e-003
9.439953e-003
9.439965e-003
9.439962e-003
9.439953e-003
9.439944e-003
9.439937e-003
9.439932e-003
9.439929e-003
9.439931e-003
9.439933e-003
9.439937e-003
9.439943e-003
9.439952e-003
9.439963e-003
9.439976e-003
9.439989e-003
9.439998e-003
9.439995e-003
9.439967e-003
9.439894e-003
9.439745e-003
9.439480e-003
9.439044e-003
9.438368e-003
9.437371e-003
9.435963e-003
9.434052e-003
9.431546e-003
9.428369e-003
9.424463e-003
9.419801e-003
9.414384e-003
9.408248e-003
9.401460e-003
9.394110e-003
9.386306e-003
9.378163e-003
9.369798e-003
9.361318e-003
9.352818e-003
9.344377e-003
9.336057e-003
9.327904e-003
9.319946e-003
9.312200e-003
9.304673e-003
9.297369e-003
9.290283e-003
9.283413e-003
9.276755e-003
9.270311e-003
9.264082e-003
9.258074e-003
9.252298e-003
9.246766e-003
9.241497e-003
9.236509e-003
9.231828e-003
9.227480e-003
9.223494e-003
9.219903e-003
9.216742e-003
9.214048e-003
9.211864e-003
9.210233e-003
9.209203e-003
9.208827e-003
9.209160e-003
9.210262e-003
9.212198e-003
9.215038e-003
9.218852e-003
9.223716e-003
9.229700e-003
9.236872e-003
9.245282e-003
9.254960e-003
9.265899e-003
9.278043e-003
9.291274e-003
9.305401e-003
9.320161e-003
9.335222e-003
9.350203e-003
9.364703e-003
9.378333e-003
9.390759e-003
9.401730e-003
9.411097e-003
9.418825e-003
9.424978e-003
9.429702e-003
9.433196e-003
9.435681e-003
9.437377e-003
9.438485e-003
9.439174e-003
9.439578e-003
9.439799e-003
9.439908e-003
9.439953e-003
9.439965e-003
9.439962e-003
9.439953e-003
9.439944e-003
9.439937e-003
9.439932e-003
9.439929e-003
9.439934e-003
9.439936e-003
9.439941e-003
9.439948e-003
9.439957e-003
9.439968e-003
9.439979e-003
9.439985e-003
9.439979e-003
9.439946e-003
9.439866e-003
9.439703e-003
9.439410e-003
9.438921e-003
9.438151e-003
9.436996e-003
9.435335e-003
9.433040e-003
9.429985e-003
9.426055e-003
9.421165e-003
9.415273e-003
9.408385e-003
9.400561e-003
9.391911e-003
9.382585e-003
9.372763e-003
9.362633e-003
9.352381e-003
9.342180e-003
9.332175e-003
9.322483e-003
9.313191e-003
9.304357e-003
9.296015e-003
9.288183e-003
9.280863e-003
9.274054e-003
9.267747e-003
9.261935e-003
9.256610e-003
9.251764e-003
9.247390e-003
9.243481e-003
9.240027e-003
9.237022e-003
9.234456e-003
9.232320e-003
9.230601e-003
9.229287e-003
9.228364e-003
9.227812e-003
9.227608e-003
9.227727e-003
9.228133e-003
9.228790e-003
9.229654e-003
9.230678e-003
9.231815e-003
9.233022e-003
9.234266e-003
9.235527e-003
9.236816e-003
9.238172e-003
9.239682e-003
9.241480e-003
9.243756e-003
9.246750e-003
9.250740e-003
9.256019e-003
9.262859e-003
9.271471e-003
9.281956e-003
9.294265e-003
9.308181e-003
9.323315e-003
9.339139e-003
9.355036e-003
9.370375e-003
9.384585e-003
9.397224e-003
9.408015e-003
9.416863e-003
9.423829e-003
9.429096e-003
9.432921e-003
9.435586e-003
9.437366e-003
9.438502e-003
9.439192e-003
9.439588e-003
9.439800e-003
9.439902e-003
9.439944e-003
9.439955e-003
9.439953e-003
9.439946e-003
9.439939e-003
9.439934e-003
9.439931e-003
9.439941e-003
9.439944e-003
9.439949e-003
9.439957e-003
9.439967e-003
9.439975e-003
9.439977e-003
9.439963e-003
9.439916e-003
9.439806e-003
9.439590e-003
9.439201e-003
9.438546e-003
9.437501e-003
9.435911e-003
9.433590e-003
9.430334e-003
9.425938e-003
9.420218e-003
9.413044e-003
9.404364e-003
9.394230e-003
9.382807e-003
9.370366e-003
9.357264e-003
9.343910e-003
9.330725e-003
9.318105e-003
9.306394e-003
9.295860e-003
9.286692e-003
9.278999e-003
9.272825e-003
9.268161e-003
9.264964e-003
9.263182e-003
9.262756e-003
9.263643e-003
9.265806e-003
9.269221e-003
9.273869e-003
9.279728e-003
9.286767e-003
9.294943e-003
9.304197e-003
9.314451e-003
9.325611e-003
9.337563e-003
9.350177e-003
9.363304e-003
9.376773e-003
9.390391e-003
9.403936e-003
9.417154e-003
9.429756e-003
9.441419e-003
9.451782e-003
9.460457e-003
9.467036e-003
9.471108e-003
9.472279e-003
9.470206e-003
9.464628e-003
9.455413e-003
9.442604e-003
9.426460e-003
9.407499e-003
9.386518e-003
9.364582e-003
9.342978e-003
9.323130e-003
9.306463e-003
9.294242e-003
9.287413e-003
9.286458e-003
9.291310e-003
9.301349e-003
9.315481e-003
9.332297e-003
9.350279e-003
9.368016e-003
9.384374e-003
9.398594e-003
9.410310e-003
9.419496e-003
9.426368e-003
9.431283e-003
9.434648e-003
9.436853e-003
9.438233e-003
9.439056e-003
9.439520e-003
9.439765e-003
9.439883e-003
9.439933e-003
9.439948e-003
9.439948e-003
9.439943e-003
9.439938e-003
9.439936e-003
9.439953e-003
9.439956e-003
9.439962e-003
9.439970e-003
9.439977e-003
9.439976e-003
9.439956e-003
9.439894e-003
9.439753e-003
9.439476e-003
9.438971e-003
9.438107e-003
9.436705e-003
9.434530e-003
9.431297e-003
9.426681e-003
9.420351e-003
9.412013e-003
9.401478e-003
9.388724e-003
9.373963e-003
9.357670e-003
9.340581e-003
9.323637e-003
9.307898e-003
9.294435e-003
9.284218e-003
9.278031e-003
9.276422e-003
9.279686e-003
9.287881e-003
9.300870e-003
9.318378e-003
9.340054e-003
9.365533e-003
9.394485e-003
9.426646e-003
9.461835e-003
9.499940e-003
9.540900e-003
9.584676e-003
9.631215e-003
9.680427e-003
9.732166e-003
9.786217e-003
9.842294e-003
9.900044e-003
9.959046e-003
1.001882e-002
1.007880e-002
1.013839e-002
1.019687e-002
1.025347e-002
1.030727e-002
1.035726e-002
1.040232e-002
1.044118e-002
1.047248e-002
1.049477e-002
1.050656e-002
1.050639e-002
1.049289e-002
1.046491e-002
1.042165e-002
1.036281e-002
1.028873e-002
1.020054e-002
1.010032e-002
9.991084e-003
9.876742e-003
9.761926e-003
9.651647e-003
9.550854e-003
9.463918e-003
9.394131e-003
9.343299e-003
9.311523e-003
9.297238e-003
9.297501e-003
9.308507e-003
9.326200e-003
9.346857e-003
9.367512e-003
9.386158e-003
9.401726e-003
9.413915e-003
9.422937e-003
9.429286e-003
9.433547e-003
9.436279e-003
9.437951e-003
9.438926e-003
9.439463e-003
9.439741e-003
9.439873e-003
9.439928e-003
9.439945e-003
9.439947e-003
9.439944e-003
9.439942e-003
9.439968e-003
9.439972e-003
9.439978e-003
9.439983e-003
9.439980e-003
9.439955e-003
9.439883e-003
9.439717e-003
9.439383e-003
9.438765e-003
9.437687e-003
9.435899e-003
9.433066e-003
9.428766e-003
9.422506e-003
9.413778e-003
9.402140e-003
9.387359e-003
9.369565e-003
9.349420e-003
9.328227e-003
9.307948e-003
9.291100e-003
9.280522e-003
9.279071e-003
9.289297e-003
9.313177e-003
9.351941e-003
9.406029e-003
9.475141e-003
9.558384e-003
9.654444e-003
9.761793e-003
9.878877e-003
1.000428e-002
1.013683e-002
1.027568e-002
1.042030e-002
1.057042e-002
1.072591e-002
1.088672e-002
1.105277e-002
1.122383e-002
1.139951e-002
1.157921e-002
1.176213e-002
1.194725e-002
1.213340e-002
1.231923e-002
1.250321e-002
1.268366e-002
1.285866e-002
1.302609e-002
1.318354e-002
1.332830e-002
1.345734e-002
1.356730e-002
1.365451e-002
1.371503e-002
1.374476e-002
1.373957e-002
1.369548e-002
1.360894e-002
1.347711e-002
1.329829e-002
1.307232e-002
1.280103e-002
1.248863e-002
1.214201e-002
1.177074e-002
1.138686e-002
1.100418e-002
1.063729e-002
1.030028e-002
1.000524e-002
9.760932e-003
9.571748e-003
9.437284e-003
9.352639e-003
9.309445e-003
9.297400e-003
9.305962e-003
9.325791e-003
9.349675e-003
9.372820e-003
9.392630e-003
9.408168e-003
9.419549e-003
9.427418e-003
9.432587e-003
9.435823e-003
9.437754e-003
9.438851e-003
9.439440e-003
9.439737e-003
9.439874e-003
9.439929e-003
9.439947e-003
9.439951e-003
9.439950e-003
9.439988e-003
9.439991e-003
9.439994e-003
9.439990e-003
9.439962e-003
9.439883e-003
9.439700e-003
9.439324e-003
9.438612e-003
9.437342e-003
9.435186e-003
9.431692e-003
9.426269e-003
9.418212e-003
9.406779e-003
9.391357e-003
9.371724e-003
9.348423e-003
9.323172e-003
9.299214e-003
9.281464e-003
9.276336e-003
9.291210e-003
9.333626e-003
9.410356e-003
9.526579e-003
9.685320e-003
9.887245e-003
1.013081e-002
1.041266e-002
1.072821e-002
1.107221e-002
1.143932e-002
1.182462e-002
1.222391e-002
1.263399e-002
1.305267e-002
1.347873e-002
1.391165e-002
1.435137e-002
1.479796e-002
1.525137e-002
1.571119e-002
1.617656e-002
1.664612e-002
1.711800e-002
1.758988e-002
1.805905e-002
1.852245e-002
1.897666e-002
1.941791e-002
1.984201e-002
2.024432e-002
2.061958e-002
2.096193e-002
2.126477e-002
2.152077e-002
2.172187e-002
2.185932e-002
2.192389e-002
2.190601e-002
2.179619e-002
2.158544e-002
2.126594e-002
2.083177e-002
2.027994e-002
1.961141e-002
1.883220e-002
1.795435e-002
1.699655e-002
1.598411e-002
1.494827e-002
1.392438e-002
1.294929e-002
1.205789e-002
1.127943e-002
1.063399e-002
1.013013e-002
9.764189e-003
9.521587e-003
9.379997e-003
9.313530e-003
9.296935e-003
9.308815e-003
9.333308e-003
9.360241e-003
9.384185e-003
9.403051e-003
9.416718e-003
9.425991e-003
9.431941e-003
9.435572e-003
9.437681e-003
9.438846e-003
9.439454e-003
9.439751e-003
9.439884e-003
9.439937e-003
9.439954e-003
9.439958e-003
9.440012e-003
9.440011e-003
9.440004e-003
9.439976e-003
9.439894e-003
9.439704e-003
9.439305e-003
9.438531e-003
9.437117e-003
9.434659e-003
9.430578e-003
9.424095e-003
9.414254e-003
9.400032e-003
9.380616e-003
9.355901e-003
9.327258e-003
9.298496e-003
9.276828e-003
9.273466e-003
9.303512e-003
9.384889e-003
9.536396e-003
9.775256e-003
1.011474e-002
1.056241e-002
1.111934e-002
1.178036e-002
1.253520e-002
1.337009e-002
1.426946e-002
1.521757e-002
1.619977e-002
1.720347e-002
1.821873e-002
1.923848e-002
2.025840e-002
2.127652e-002
2.229253e-002
2.330706e-002
2.432098e-002
2.533474e-002
2.634802e-002
2.735946e-002
2.836664e-002
2.936616e-002
3.035375e-002
3.132446e-002
3.227275e-002
3.319254e-002
3.407721e-002
3.491948e-002
3.571129e-002
3.644363e-002
3.710637e-002
3.768813e-002
3.817615e-002
3.855624e-002
3.881281e-002
3.892897e-002
3.888678e-002
3.866765e-002
3.825294e-002
3.762487e-002
3.676776e-002
3.566960e-002
3.432416e-002
3.273331e-002
3.090955e-002
2.887835e-002
2.667981e-002
2.436912e-002
2.201517e-002
1.969692e-002
1.749725e-002
1.549474e-002
1.375439e-002
1.231910e-002
1.120408e-002
1.039591e-002
9.856931e-003
9.533734e-003
9.367598e-003
9.303911e-003
9.298523e-003
9.320198e-003
9.349768e-003
9.377373e-003
9.399219e-003
9.414839e-003
9.425216e-003
9.431710e-003
9.435567e-003
9.437744e-003
9.438911e-003
9.439502e-003
9.439781e-003
9.439902e-003
9.439949e-003
9.439964e-003
9.440034e-003
9.440025e-003
9.439996e-003
9.439916e-003
9.439729e-003
9.439328e-003
9.438532e-003
9.437042e-003
9.434387e-003
9.429870e-003
9.422519e-003
9.411103e-003
9.394277e-003
9.370995e-003
9.341366e-003
9.308086e-003
9.278472e-003
9.266768e-003
9.296013e-003
9.398516e-003
9.614104e-003
9.985947e-003
1.055462e-002
1.135178e-002
1.239516e-002
1.368594e-002
1.520909e-002
1.693621e-002
1.882993e-002
2.084874e-002
2.295129e-002
2.509974e-002
2.726199e-002
2.941281e-002
3.153421e-002
3.361504e-002
3.565013e-002
3.763888e-002
3.958369e-002
4.148841e-002
4.335689e-002
4.519198e-002
4.699485e-002
4.876477e-002
5.049914e-002
5.219375e-002
5.384316e-002
5.544096e-002
5.698008e-002
5.845287e-002
5.985108e-002
6.116576e-002
6.238701e-002
6.350377e-002
6.450353e-002
6.537204e-002
6.609307e-002
6.664821e-002
6.701665e-002
6.717512e-002
6.709776e-002
6.675627e-002
6.612019e-002
6.515748e-002
6.383563e-002
6.212345e-002
5.999359e-002
5.742626e-002
5.441385e-002
5.096652e-002
4.711814e-002
4.293173e-002
3.850308e-002
3.396067e-002
2.946007e-002
2.517156e-002
2.126124e-002
1.786842e-002
1.508446e-002
1.293932e-002
1.140027e-002
1.038380e-002
9.776670e-003
9.459511e-003
9.326240e-003
9.295122e-003
9.311180e-003
9.342361e-003
9.372961e-003
9.397163e-003
9.414174e-003
9.425206e-003
9.431927e-003
9.435805e-003
9.437930e-003
9.439034e-003
9.439575e-003
9.439822e-003
9.439926e-003
9.439962e-003
9.440047e-003
9.440021e-003
9.439947e-003
9.439772e-003
9.439389e-003
9.438612e-003
9.437123e-003
9.434405e-003
9.429663e-003
9.421752e-003
9.409165e-003
9.390204e-003
9.363535e-003
9.329483e-003
9.292448e-003
9.264687e-003
9.271169e-003
9.354299e-003
9.576422e-003
1.001777e-002
1.076855e-002
1.191576e-002
1.352794e-002
1.564175e-002
1.825455e-002
2.132457e-002
2.477819e-002
2.852160e-002
3.245371e-002
3.647736e-002
4.050734e-002
4.447479e-002
4.832869e-002
5.203518e-002
5.557556e-002
5.894363e-002
6.214258e-002
6.518186e-002
6.807418e-002
7.083301e-002
7.347059e-002
7.599672e-002
7.841821e-002
8.073886e-002
8.295985e-002
8.508029e-002
8.709790e-002
8.900946e-002
9.081121e-002
9.249903e-002
9.406845e-002
9.551450e-002
9.683153e-002
9.801288e-002
9.905063e-002
9.993518e-002
1.006549e-001
1.011958e-001
1.015409e-001
1.016694e-001
1.015567e-001
1.011731e-001
1.004830e-001
9.944468e-002
9.800927e-002
9.612116e-002
9.371891e-002
9.073772e-002
8.711418e-002
8.279382e-002
7.774220e-002
7.195941e-002
6.549680e-002
5.847286e-002
5.108298e-002
4.359666e-002
3.633652e-002
2.963765e-002
2.379395e-002
1.900544e-002
1.534438e-002
1.275257e-002
1.106997e-002
1.008286e-002
9.573466e-003
9.356534e-003
9.296280e-003
9.306174e-003
9.338556e-003
9.371426e-003
9.397147e-003
9.414814e-003
9.425962e-003
9.432558e-003
9.436250e-003
9.438211e-003
9.439197e-003
9.439664e-003
9.439868e-003
9.439942e-003
9.440037e-003
9.439980e-003
9.439824e-003
9.439477e-003
9.438758e-003
9.437345e-003
9.434703e-003
9.429977e-003
9.421891e-003
9.408695e-003
9.388325e-003
9.359071e-003
9.321315e-003
9.281123e-003
9.256477e-003
9.286212e-003
9.440107e-003
9.826337e-003
1.059092e-002
1.190457e-002
1.393636e-002
1.681920e-002
2.061753e-002
2.530775e-002
3.077840e-002
3.684911e-002
4.330147e-002
4.991204e-002
5.647930e-002
6.284049e-002
6.887809e-002
7.451835e-002
7.972509e-002
8.449149e-002
8.883162e-002
9.277298e-002
9.635026e-002
9.960056e-002
1.025599e-001
1.052611e-001
1.077323e-001
1.099969e-001
1.120739e-001
1.139782e-001
1.157217e-001
1.173143e-001
1.187640e-001
1.200782e-001
1.212633e-001
1.223253e-001
1.232698e-001
1.241019e-001
1.248260e-001
1.254461e-001
1.259649e-001
1.263842e-001
1.267045e-001
1.269241e-001
1.270391e-001
1.270425e-001
1.269232e-001
1.266648e-001
1.262440e-001
1.256286e-001
1.247752e-001
1.236255e-001
1.221036e-001
1.201124e-001
1.175311e-001
1.142157e-001
1.100052e-001
1.047363e-001
9.827115e-002
9.053808e-002
8.158110e-002
7.160520e-002
6.099896e-002
5.031312e-002
4.018338e-002
3.120866e-002
2.382309e-002
1.821082e-002
1.429703e-002
1.181178e-002
1.039226e-002
9.679846e-003
9.382816e-003
9.298392e-003
9.304663e-003
9.338562e-003
9.372929e-003
9.399169e-003
9.416666e-003
9.427370e-003
9.433508e-003
9.436836e-003
9.438547e-003
9.439377e-003
9.439751e-003
9.439891e-003
9.439982e-003
9.439869e-003
9.439575e-003
9.438942e-003
9.437667e-003
9.435227e-003
9.430753e-003
9.422899e-003
9.409739e-003
9.388873e-003
9.358118e-003
9.317565e-003
9.274308e-003
9.251465e-003
9.302602e-003
9.530266e-003
1.010303e-002
1.126077e-002
1.329641e-002
1.650799e-002
2.112754e-002
2.724813e-002
3.477748e-002
4.343924e-002
5.282307e-002
6.246413e-002
7.192371e-002
8.084800e-002
8.899552e-002
9.623663e-002
1.025353e-001
1.079238e-001
1.124772e-001
1.162922e-001
1.194711e-001
1.221110e-001
1.242990e-001
1.261100e-001
1.276066e-001
1.288411e-001
1.298564e-001
1.306883e-001
1.313668e-001
1.319171e-001
1.323605e-001
1.327150e-001
1.329959e-001
1.332160e-001
1.333862e-001
1.335154e-001
1.336112e-001
1.336801e-001
1.337274e-001
1.337575e-001
1.337739e-001
1.337793e-001
1.337756e-001
1.337637e-001
1.337435e-001
1.337136e-001
1.336713e-001
1.336119e-001
1.335284e-001
1.334104e-001
1.332429e-001
1.330036e-001
1.326600e-001
1.321632e-001
1.314390e-001
1.303752e-001
1.288033e-001
1.264817e-001
1.230876e-001
1.182359e-001
1.115402e-001
1.027246e-001
9.176853e-002
7.903529e-002
6.530656e-002
5.166603e-002
3.924369e-002
2.891797e-002
2.111066e-002
1.575960e-002
1.245206e-002
1.062635e-002
9.745487e-003
9.393835e-003
9.298741e-003
9.306343e-003
9.342363e-003
9.377301e-003
9.402964e-003
9.419473e-003
9.429233e-003
9.434646e-003
9.437485e-003
9.438892e-003
9.439540e-003
9.439787e-003
9.439850e-003
9.439646e-003
9.439128e-003
9.438037e-003
9.435894e-003
9.431867e-003
9.424614e-003
9.412129e-003
9.391755e-003
9.360785e-003
9.318598e-003
9.272117e-003
9.247330e-003
9.309678e-003
9.593616e-003
1.033494e-002
1.188950e-002
1.471413e-002
1.928923e-002
2.598504e-002
3.490985e-002
4.580732e-002
5.806298e-002
7.083086e-002
8.322953e-002
9.452685e-002
1.042511e-001
1.122115e-001
1.184487e-001
1.231542e-001
1.265907e-001
1.290332e-001
1.307312e-001
1.318908e-001
1.326704e-001
1.331856e-001
1.335184e-001
1.337267e-001
1.338517e-001
1.339230e-001
1.339623e-001
1.339847e-001
1.340003e-001
1.340147e-001
1.340302e-001
1.340464e-001
1.340614e-001
1.340729e-001
1.340784e-001
1.340764e-001
1.340664e-001
1.340490e-001
1.340260e-001
1.340001e-001
1.339752e-001
1.339557e-001
1.339467e-001
1.339536e-001
1.339817e-001
1.340360e-001
1.341201e-001
1.342355e-001
1.343800e-001
1.345466e-001
1.347207e-001
1.348793e-001
1.349898e-001
1.350113e-001
1.348990e-001
1.346109e-001
1.341117e-001
1.333626e-001
1.322827e-001
1.306751e-001
1.281349e-001
1.239970e-001
1.174207e-001
1.076897e-001
9.465248e-002
7.904440e-002
6.242538e-002
4.669656e-002
3.344752e-002
2.349562e-002
1.682132e-002
1.283018e-002
1.071756e-002
9.748126e-003
9.384790e-003
9.297200e-003
9.311433e-003
9.349730e-003
9.384063e-003
9.408052e-003
9.422867e-003
9.431311e-003
9.435832e-003
9.438115e-003
9.439185e-003
9.439600e-003
9.439596e-003
9.439251e-003
9.438387e-003
9.436602e-003
9.433153e-003
9.426782e-003
9.415513e-003
9.396563e-003
9.366754e-003
9.324418e-003
9.274939e-003
9.243670e-003
9.301248e-003
9.604719e-003
1.044984e-002
1.231342e-002
1.584484e-002
2.175871e-002
3.060977e-002
4.250426e-002
5.688608e-002
7.255305e-002
8.795415e-002
1.016455e-001
1.126836e-001
1.207845e-001
1.262289e-001
1.296134e-001
1.315941e-001
1.327190e-001
1.333696e-001
1.337731e-001
1.340420e-001
1.342172e-001
1.343047e-001
1.342995e-001
1.341992e-001
1.340066e-001
1.337290e-001
1.333750e-001
1.329529e-001
1.324695e-001
1.319301e-001
1.313389e-001
1.307003e-001
1.300193e-001
1.293023e-001
1.285568e-001
1.277922e-001
1.270187e-001
1.262482e-001
1.254930e-001
1.247667e-001
1.240838e-001
1.234596e-001
1.229109e-001
1.224558e-001
1.221137e-001
1.219057e-001
1.218543e-001
1.219831e-001
1.223160e-001
1.228761e-001
1.236832e-001
1.247508e-001
1.260804e-001
1.276545e-001
1.294268e-001
1.313107e-001
1.331681e-001
1.348029e-001
1.359705e-001
1.364202e-001
1.359827e-001
1.346649e-001
1.326033e-001
1.297247e-001
1.252751e-001
1.177986e-001
1.059653e-001
8.976462e-002
7.097005e-002
5.239782e-002
3.658668e-002
2.486171e-002
1.722556e-002
1.284324e-002
1.063822e-002
9.687029e-003
9.359884e-003
9.296295e-003
9.320407e-003
9.360127e-003
9.392470e-003
9.413825e-003
9.426447e-003
9.433368e-003
9.436928e-003
9.438624e-003
9.439290e-003
9.439166e-003
9.438611e-003
9.437236e-003
9.434438e-003
9.429114e-003
9.419435e-003
9.402659e-003
9.375301e-003
9.334575e-003
9.283286e-003
9.242560e-003
9.279431e-003
9.556901e-003
1.040701e-002
1.240616e-002
1.639633e-002
2.336484e-002
3.411375e-002
4.876589e-002
6.634687e-002
8.479756e-002
1.016021e-001
1.147779e-001
1.236287e-001
1.287765e-001
1.315182e-001
1.330478e-001
1.340396e-001
1.346754e-001
1.348964e-001
1.346286e-001
1.338721e-001
1.326922e-001
1.311818e-001
1.294336e-001
1.275274e-001
1.255258e-001
1.234745e-001
1.214049e-001
1.193370e-001
1.172831e-001
1.152506e-001
1.132449e-001
1.112709e-001
1.093341e-001
1.074410e-001
1.055992e-001
1.038168e-001
1.021028e-001
1.004664e-001
9.891687e-002
9.746426e-002
9.611906e-002
9.489284e-002
9.379856e-002
9.285109e-002
9.206765e-002
9.146833e-002
9.107664e-002
9.092008e-002
9.103077e-002
9.144614e-002
9.220942e-002
9.336999e-002
9.498302e-002
9.710799e-002
9.980498e-002
1.031275e-001
1.071093e-001
1.117430e-001
1.169449e-001
1.225064e-001
1.280347e-001
1.329140e-001
1.363510e-001
1.376129e-001
1.364771e-001
1.335168e-001
1.293918e-001
1.233064e-001
1.129197e-001
9.676955e-002
7.637819e-002
5.550509e-002
3.775124e-002
2.490690e-002
1.687089e-002
1.248815e-002
1.041299e-002
9.583285e-003
9.330029e-003
9.299583e-003
9.333370e-003
9.372642e-003
9.401619e-003
9.419659e-003
9.429847e-003
9.435195e-003
9.437782e-003
9.438808e-003
9.438494e-003
9.437638e-003
9.435543e-003
9.431330e-003
9.423423e-003
9.409294e-003
9.385405e-003
9.348079e-003
9.297224e-003
9.247304e-003
9.253736e-003
9.466259e-003
1.021755e-002
1.213441e-002
1.621001e-002
2.371025e-002
3.576446e-002
5.262143e-002
7.289541e-002
9.348740e-002
1.107322e-001
1.223567e-001
1.287073e-001
1.319382e-001
1.339456e-001
1.352238e-001
1.353726e-001
1.340501e-001
1.313314e-001
1.275724e-001
1.231919e-001
1.185462e-001
1.138895e-001
1.093806e-001
1.051053e-001
1.011001e-001
9.736962e-002
9.390081e-002
9.067128e-002
8.765573e-002
8.482985e-002
8.217259e-002
7.966715e-002
7.730112e-002
7.506592e-002
7.295609e-002
7.096846e-002
6.910140e-002
6.735430e-002
6.572730e-002
6.422121e-002
6.283758e-002
6.157893e-002
6.044909e-002
5.945352e-002
5.859969e-002
5.789757e-002
5.736008e-002
5.700374e-002
5.684941e-002
5.692336e-002
5.725847e-002
5.789592e-002
5.888720e-002
6.029646e-002
6.220325e-002
6.470510e-002
6.791949e-002
7.198357e-002
7.704894e-002
8.326569e-002
9.074610e-002
9.949357e-002
1.092811e-001
1.194790e-001
1.288896e-001
1.357843e-001
1.385073e-001
1.367630e-001
1.322386e-001
1.262032e-001
1.165074e-001
1.001727e-001
7.827838e-002
5.560311e-002
3.672745e-002
2.362297e-002
1.584830e-002
1.186269e-002
1.010758e-002
9.469640e-003
9.307238e-003
9.309500e-003
9.349584e-003
9.386056e-003
9.410602e-003
9.425016e-003
9.432762e-003
9.436570e-003
9.438096e-003
9.437508e-003
9.436243e-003
9.433168e-003
9.427057e-003
9.415748e-003
9.395930e-003
9.363482e-003
9.315852e-003
9.260279e-003
9.235929e-003
9.363725e-003
9.939892e-003
1.157486e-002
1.532807e-002
2.269244e-002
3.518949e-002
5.341168e-002
7.580682e-002
9.826769e-002
1.158260e-001
1.260976e-001
1.310301e-001
1.339663e-001
1.357511e-001
1.351488e-001
1.314039e-001
1.250325e-001
1.171458e-001
1.087771e-001
1.006291e-001
9.308493e-002
8.630172e-002
8.030134e-002
7.503500e-002
7.042298e-002
6.637691e-002
6.281109e-002
5.964801e-002
5.682064e-002
5.427297e-002
5.195968e-002
4.984514e-002
4.790202e-002
4.610980e-002
4.445323e-002
4.292098e-002
4.150448e-002
4.019710e-002
3.899353e-002
3.788949e-002
3.688153e-002
3.596708e-002
3.514453e-002
3.441336e-002
3.377438e-002
3.322991e-002
3.278403e-002
3.244296e-002
3.221546e-002
3.211341e-002
3.215266e-002
3.235409e-002
3.274523e-002
3.336230e-002
3.425308e-002
3.548077e-002
3.712905e-002
3.930878e-002
4.216630e-002
4.589306e-002
5.073429e-002
5.699091e-002
6.500128e-002
7.507724e-002
8.735386e-002
1.015080e-001
1.163488e-001
1.294782e-001
1.376424e-001
1.386796e-001
1.341655e-001
1.275510e-001
1.176245e-001
1.002594e-001
7.659735e-002
5.268515e-002
3.370931e-002
2.129715e-002
1.440703e-002
1.112518e-002
9.800381e-003
9.376111e-003
9.299245e-003
9.326070e-003
9.367485e-003
9.399078e-003
9.418653e-003
9.429480e-003
9.434897e-003
9.437092e-003
9.436138e-003
9.434334e-003
9.429983e-003
9.421428e-003
9.405834e-003
9.379143e-003
9.337272e-003
9.281391e-003
9.234118e-003
9.280259e-003
9.652826e-003
1.088137e-002
1.398011e-002
2.054658e-002
3.247901e-002
5.096189e-002
7.478626e-002
9.923095e-002
1.178481e-001
1.277256e-001
1.322838e-001
1.353162e-001
1.356173e-001
1.308191e-001
1.212810e-001
1.091852e-001
9.665955e-002
8.503070e-002
7.487851e-002
6.631185e-002
5.920613e-002
5.335080e-002
4.852507e-002
4.453019e-002
4.119916e-002
3.839633e-002
3.601341e-002
3.396474e-002
3.218320e-002
3.061662e-002
2.922495e-002
2.797779e-002
2.685231e-002
2.583141e-002
2.490231e-002
2.405530e-002
2.328284e-002
2.257889e-002
2.193852e-002
2.135757e-002
2.083256e-002
2.036069e-002
1.993976e-002
1.956830e-002
1.924564e-002
1.897194e-002
1.874837e-002
1.857726e-002
1.846231e-002
1.840895e-002
1.842478e-002
1.852026e-002
1.870974e-002
1.901280e-002
1.945634e-002
2.007754e-002
2.092814e-002
2.208083e-002
2.363862e-002
2.574835e-002
2.861975e-002
3.254968e-002
3.794768e-002
4.534839e-002
5.537606e-002
6.859278e-002
8.512919e-002
1.040235e-001
1.224372e-001
1.356152e-001
1.393643e-001
1.348928e-001
1.275811e-001
1.165959e-001
9.705311e-002
7.141570e-002
4.714797e-002
2.926188e-002
1.842370e-002
1.286390e-002
1.043376e-002
9.552821e-003
9.319438e-003
9.307216e-003
9.347070e-003
9.385147e-003
9.410608e-003
9.425214e-003
9.432673e-003
9.435729e-003
9.434322e-003
9.431837e-003
9.425886e-003
9.414313e-003
9.393569e-003
9.359076e-003
9.308030e-003
9.249650e-003
9.234273e-003
9.422302e-003
1.022041e-002
1.249321e-002
1.777096e-002
2.818056e-002
4.561418e-002
6.982205e-002
9.633683e-002
1.173121e-001
1.280870e-001
1.327290e-001
1.356991e-001
1.339068e-001
1.243988e-001
1.092666e-001
9.245465e-002
7.683082e-002
6.366963e-002
5.316790e-002
4.501564e-002
3.875395e-002
3.394372e-002
3.022341e-002
2.731523e-002
2.501265e-002
2.316412e-002
2.165861e-002
2.041440e-002
1.937100e-002
1.848341e-002
1.771812e-002
1.705023e-002
1.646126e-002
1.593755e-002
1.546900e-002
1.504802e-002
1.466886e-002
1.432702e-002
1.401886e-002
1.374139e-002
1.349207e-002
1.326877e-002
1.306969e-002
1.289339e-002
1.273877e-002
1.260510e-002
1.249207e-002
1.239980e-002
1.232892e-002
1.228066e-002
1.225701e-002
1.226093e-002
1.229665e-002
1.237021e-002
1.249012e-002
1.266851e-002
1.292273e-002
1.327801e-002
1.377152e-002
1.445892e-002
1.542504e-002
1.680094e-002
1.879058e-002
2.171035e-002
2.604075e-002
3.247749e-002
4.193771e-002
5.541788e-002
7.352711e-002
9.552335e-002
1.180193e-001
1.346289e-001
1.394412e-001
1.343060e-001
1.262811e-001
1.131500e-001
9.030133e-002
6.308855e-002
3.980716e-002
2.419655e-002
1.554966e-002
1.149653e-002
9.895616e-003
9.392995e-003
9.300783e-003
9.326985e-003
9.369224e-003
9.400852e-003
9.419870e-003
9.429819e-003
9.433949e-003
9.432019e-003
9.428707e-003
9.420826e-003
9.405675e-003
9.379038e-003
9.336302e-003
9.277956e-003
9.227625e-003
9.280242e-003
9.710043e-003
1.116885e-002
1.495494e-002
2.316599e-002
3.824941e-002
6.130299e-002
8.928238e-002
1.138881e-001
1.273688e-001
1.324166e-001
1.354200e-001
1.324774e-001
1.194279e-001
9.978958e-002
7.933074e-002
6.167060e-002
4.794988e-002
3.789321e-002
3.072807e-002
2.566586e-002
2.207256e-002
1.948908e-002
1.759921e-002
1.618977e-002
1.511758e-002
1.428587e-002
1.362839e-002
1.309907e-002
1.266536e-002
1.230400e-002
1.199821e-002
1.173585e-002
1.150809e-002
1.130850e-002
1.113236e-002
1.097616e-002
1.083723e-002
1.071349e-002
1.060324e-002
1.050509e-002
1.041783e-002
1.034047e-002
1.027213e-002
1.021209e-002
1.015978e-002
1.011476e-002
1.007675e-002
1.004563e-002
1.002146e-002
1.000451e-002
9.995306e-003
9.994719e-003
1.000408e-002
1.002537e-002
1.006152e-002
1.011686e-002
1.019786e-002
1.031433e-002
1.048151e-002
1.072351e-002
1.107958e-002
1.161504e-002
1.244075e-002
1.374654e-002
1.585595e-002
1.930706e-002
2.494850e-002
3.399278e-002
4.787187e-002
6.761110e-002
9.243677e-002
1.179005e-001
1.356092e-001
1.389285e-001
1.324539e-001
1.234415e-001
1.064565e-001