# vtk DataFile Version 3.0
vtk output
ASCII
DATASET STRUCTURED_POINTS
DIMENSIONS 100 100 1
SPACING 1 1 1
ORIGIN 0 0 0
POINT_DATA 10000
SCALARS SFBox_profile double
LOOKUP_TABLE default 
9.439920e-003
9.439920e-003
9.439920e-003
9.439920e-003
9.439920e-003
9.439920e-003
9.439920e-003
9.439920e-003
9.439920e-003
9.439920e-003
9.439920e-003
9.439920e-003
9.439920e-003
9.439920e-003
9.439920e-003
9.439920e-003
9.439920e-003
9.439920e-003
9.439920e-003
9.439920e-003
9.439920e-003
9.439920e-003
9.439920e-003
9.439920e-003
9.439920e-003
9.439920e-003
9.439920e-003
9.439920e-003
9.439920e-003
9.439920e-003
9.439920e-003
9.439920e-003
9.439920e-003
9.439920e-003
9.439920e-003
9.439920e-003
9.439920e-003
9.439920e-003
9.439920e-003
9.439920e-003
9.439920e-003
9.439920e-003
9.439920e-003
9.439920e-003
9.439920e-003
9.439920e-003
9.439920e-003
9.439920e-003
9.439921e-003
9.439921e-003
9.439921e-003
9.439921e-003
9.439921e-003
9.439921e-003
9.439921e-003
9.439920e-003
9.439920e-003
9.439920e-003
9.439920e-003
9.439920e-003
9.439920e-003
9.439920e-003
9.439920e-003
9.439920e-003
9.439920e-003
9.439920e-003
9.439920e-003
9.439920e-003
9.439920e-003
9.439920e-003
9.439920e-003
9.439920e-003
9.439920e-003
9.439920e-003
9.439920e-003
9.439920e-003
9.439920e-003
9.439920e-003
9.439920e-003
9.439920e-003
9.439920e-003
9.439920e-003
9.439920e-003
9.439920e-003
9.439920e-003
9.439920e-003
9.439920e-003
9.439920e-003
9.439920e-003
9.439920e-003
9.439920e-003
9.439920e-003
9.439920e-003
9.439920e-003
9.439920e-003
9.439920e-003
9.439920e-003
9.439920e-003
9.439920e-003
9.439920e-003
9.439920e-003
9.439920e-003
9.439920e-003
9.439920e-003
9.439920e-003
9.439920e-003
9.439920e-003
9.439920e-003
9.439920e-003
9.439920e-003
9.439920e-003
9.439920e-003
9.439920e-003
9.439920e-003
9.439920e-003
9.439920e-003
9.439920e-003
9.439920e-003
9.439920e-003
9.439920e-003
9.439920e-003
9.439920e-003
9.439920e-003
9.439920e-003
9.439920e-003
9.439920e-003
9.439920e-003
9.439920e-003
9.439920e-003
9.439920e-003
9.439920e-003
9.439920e-003
9.439920e-003
9.439920e-003
9.439920e-003
9.439920e-003
9.439920e-003
9.439920e-003
9.439920e-003
9.439920e-003
9.439920e-003
9.439920e-003
9.439920e-003
9.439920e-003
9.439920e-003
9.439920e-003
9.439920e-003
9.439920e-003
9.439921e-003
9.439921e-003
9.439921e-003
9.439921e-003
9.439921e-003
9.439921e-003
9.439921e-003
9.439920e-003
9.439920e-003
9.439920e-003
9.439920e-003
9.439920e-003
9.439920e-003
9.439920e-003
9.439920e-003
9.439920e-003
9.439920e-003
9.439920e-003
9.439920e-003
9.439920e-003
9.439920e-003
9.439920e-003
9.439920e-003
9.439920e-003
9.439920e-003
9.439920e-003
9.439920e-003
9.439920e-003
9.439920e-003
9.439920e-003
9.439920e-003
9.439920e-003
9.439920e-003
9.439920e-003
9.439920e-003
9.439920e-003
9.439920e-003
9.439920e-003
9.439920e-003
9.439920e-003
9.439920e-003
9.439920e-003
9.439920e-003
9.439920e-003
9.439920e-003
9.439920e-003
9.439920e-003
9.439920e-003
9.439920e-003
9.439920e-003
9.439920e-003
9.439920e-003
9.439920e-003
9.439920e-003
9.439920e-003
9.439920e-003
9.439920e-003
9.439920e-003
9.439920e-003
9.439920e-003
9.439920e-003
9.439920e-003
9.439920e-003
9.439920e-003
9.439920e-003
9.439920e-003
9.439920e-003
9.439920e-003
9.439920e-003
9.439920e-003
9.439920e-003
9.439920e-003
9.439920e-003
9.439920e-003
9.439920e-003
9.439920e-003
9.439920e-003
9.439920e-003
9.439920e-003
9.439920e-003
9.439920e-003
9.439920e-003
9.439920e-003
9.439920e-003
9.439920e-003
9.439920e-003
9.439920e-003
9.439920e-003
9.439920e-003
9.439920e-003
9.439920e-003
9.439920e-003
9.439921e-003
9.439921e-003
9.439921e-003
9.439921e-003
9.439921e-003
9.439921e-003
9.439921e-003
9.439921e-003
9.439921e-003
9.439921e-003
9.439921e-003
9.439921e-003
9.439921e-003
9.439921e-003
9.439921e-003
9.439921e-003
9.439921e-003
9.439921e-003
9.439921e-003
9.439921e-003
9.439921e-003
9.439921e-003
9.439920e-003
9.439920e-003
9.439920e-003
9.439920e-003
9.439920e-003
9.439920e-003
9.439920e-003
9.439920e-003
9.439920e-003
9.439920e-003
9.439920e-003
9.439920e-003
9.439920e-003
9.439920e-003
9.439920e-003
9.439920e-003
9.439920e-003
9.439920e-003
9.439920e-003
9.439920e-003
9.439920e-003
9.439920e-003
9.439920e-003
9.439920e-003
9.439920e-003
9.439920e-003
9.439920e-003
9.439920e-003
9.439920e-003
9.439920e-003
9.439920e-003
9.439920e-003
9.439920e-003
9.439920e-003
9.439920e-003
9.439920e-003
9.439920e-003
9.439920e-003
9.439920e-003
9.439920e-003
9.439920e-003
9.439920e-003
9.439920e-003
9.439920e-003
9.439920e-003
9.439920e-003
9.439920e-003
9.439920e-003
9.439920e-003
9.439920e-003
9.439920e-003
9.439920e-003
9.439920e-003
9.439920e-003
9.439920e-003
9.439920e-003
9.439920e-003
9.439920e-003
9.439920e-003
9.439920e-003
9.439920e-003
9.439920e-003
9.439920e-003
9.439920e-003
9.439920e-003
9.439920e-003
9.439920e-003
9.439920e-003
9.439920e-003
9.439920e-003
9.439920e-003
9.439920e-003
9.439921e-003
9.439921e-003
9.439921e-003
9.439921e-003
9.439921e-003
9.439921e-003
9.439921e-003
9.439921e-003
9.439921e-003
9.439922e-003
9.439922e-003
9.439922e-003
9.439922e-003
9.439922e-003
9.439922e-003
9.439922e-003
9.439922e-003
9.439922e-003
9.439922e-003
9.439922e-003
9.439922e-003
9.439922e-003
9.439922e-003
9.439922e-003
9.439922e-003
9.439921e-003
9.439921e-003
9.439921e-003
9.439921e-003
9.439921e-003
9.439921e-003
9.439921e-003
9.439921e-003
9.439920e-003
9.439920e-003
9.439920e-003
9.439920e-003
9.439920e-003
9.439920e-003
9.439920e-003
9.439920e-003
9.439920e-003
9.439920e-003
9.439920e-003
9.439920e-003
9.439920e-003
9.439920e-003
9.439920e-003
9.439920e-003
9.439920e-003
9.439920e-003
9.439920e-003
9.439920e-003
9.439920e-003
9.439920e-003
9.439920e-003
9.439920e-003
9.439920e-003
9.439920e-003
9.439920e-003
9.439920e-003
9.439920e-003
9.439920e-003
9.439920e-003
9.439920e-003
9.439920e-003
9.439920e-003
9.439920e-003
9.439920e-003
9.439920e-003
9.439920e-003
9.439920e-003
9.439920e-003
9.439920e-003
9.439920e-003
9.439920e-003
9.439920e-003
9.439920e-003
9.439920e-003
9.439920e-003
9.439920e-003
9.439920e-003
9.439920e-003
9.439920e-003
9.439920e-003
9.439920e-003
9.439920e-003
9.439920e-003
9.439920e-003
9.439920e-003
9.439920e-003
9.439920e-003
9.439920e-003
9.439920e-003
9.439920e-003
9.439920e-003
9.439920e-003
9.439921e-003
9.439921e-003
9.439921e-003
9.439921e-003
9.439921e-003
9.439922e-003
9.439922e-003
9.439922e-003
9.439922e-003
9.439923e-003
9.439923e-003
9.439923e-003
9.439923e-003
9.439923e-003
9.439924e-003
9.439924e-003
9.439924e-003
9.439924e-003
9.439924e-003
9.439924e-003
9.439924e-003
9.439924e-003
9.439924e-003
9.439924e-003
9.439924e-003
9.439924e-003
9.439924e-003
9.439923e-003
9.439923e-003
9.439923e-003
9.439923e-003
9.439922e-003
9.439922e-003
9.439922e-003
9.439921e-003
9.439921e-003
9.439921e-003
9.439921e-003
9.439921e-003
9.439921e-003
9.439920e-003
9.439920e-003
9.439920e-003
9.439920e-003
9.439920e-003
9.439920e-003
9.439920e-003
9.439920e-003
9.439920e-003
9.439920e-003
9.439920e-003
9.439920e-003
9.439920e-003
9.439920e-003
9.439920e-003
9.439920e-003
9.439920e-003
9.439920e-003
9.439920e-003
9.439920e-003
9.439920e-003
9.439920e-003
9.439920e-003
9.439920e-003
9.439920e-003
9.439920e-003
9.439920e-003
9.439920e-003
9.439920e-003
9.439920e-003
9.439920e-003
9.439920e-003
9.439920e-003
9.439920e-003
9.439920e-003
9.439920e-003
9.439920e-003
9.439920e-003
9.439920e-003
9.439920e-003
9.439920e-003
9.439920e-003
9.439920e-003
9.439920e-003
9.439920e-003
9.439920e-003
9.439920e-003
9.439920e-003
9.439920e-003
9.439920e-003
9.439920e-003
9.439920e-003
9.439920e-003
9.439920e-003
9.439920e-003
9.439920e-003
9.439920e-003
9.439921e-003
9.439921e-003
9.439921e-003
9.439921e-003
9.439922e-003
9.439922e-003
9.439922e-003
9.439923e-003
9.439923e-003
9.439924e-003
9.439924e-003
9.439925e-003
9.439925e-003
9.439926e-003
9.439926e-003
9.439926e-003
9.439927e-003
9.439927e-003
9.439927e-003
9.439928e-003
9.439928e-003
9.439928e-003
9.439928e-003
9.439928e-003
9.439928e-003
9.439928e-003
9.439928e-003
9.439927e-003
9.439927e-003
9.439927e-003
9.439926e-003
9.439926e-003
9.439926e-003
9.439925e-003
9.439925e-003
9.439924e-003
9.439924e-003
9.439923e-003
9.439923e-003
9.439922e-003
9.439922e-003
9.439921e-003
9.439921e-003
9.439921e-003
9.439921e-003
9.439920e-003
9.439920e-003
9.439920e-003
9.439920e-003
9.439920e-003
9.439920e-003
9.439920e-003
9.439920e-003
9.439920e-003
9.439920e-003
9.439920e-003
9.439920e-003
9.439920e-003
9.439920e-003
9.439920e-003
9.439920e-003
9.439920e-003
9.439920e-003
9.439920e-003
9.439920e-003
9.439920e-003
9.439920e-003
9.439920e-003
9.439920e-003
9.439920e-003
9.439920e-003
9.439920e-003
9.439920e-003
9.439920e-003
9.439920e-003
9.439920e-003
9.439920e-003
9.439920e-003
9.439920e-003
9.439920e-003
9.439920e-003
9.439920e-003
9.439920e-003
9.439920e-003
9.439920e-003
9.439920e-003
9.439920e-003
9.439920e-003
9.439920e-003
9.439920e-003
9.439920e-003
9.439920e-003
9.439920e-003
9.439920e-003
9.439920e-003
9.439920e-003
9.439920e-003
9.439921e-003
9.439921e-003
9.439921e-003
9.439921e-003
9.439922e-003
9.439922e-003
9.439923e-003
9.439924e-003
9.439924e-003
9.439925e-003
9.439926e-003
9.439926e-003
9.439927e-003
9.439928e-003
9.439929e-003
9.439930e-003
9.439930e-003
9.439931e-003
9.439932e-003
9.439932e-003
9.439933e-003
9.439933e-003
9.439934e-003
9.439934e-003
9.439934e-003
9.439934e-003
9.439934e-003
9.439934e-003
9.439934e-003
9.439934e-003
9.439933e-003
9.439933e-003
9.439932e-003
9.439932e-003
9.439931e-003
9.439930e-003
9.439929e-003
9.439928e-003
9.439928e-003
9.439927e-003
9.439926e-003
9.439925e-003
9.439924e-003
9.439924e-003
9.439923e-003
9.439922e-003
9.439922e-003
9.439921e-003
9.439921e-003
9.439921e-003
9.439921e-003
9.439920e-003
9.439920e-003
9.439920e-003
9.439920e-003
9.439920e-003
9.439920e-003
9.439920e-003
9.439920e-003
9.439920e-003
9.439920e-003
9.439920e-003
9.439920e-003
9.439920e-003
9.439920e-003
9.439920e-003
9.439920e-003
9.439920e-003
9.439920e-003
9.439920e-003
9.439920e-003
9.439920e-003
9.439920e-003
9.439920e-003
9.439920e-003
9.439920e-003
9.439920e-003
9.439920e-003
9.439920e-003
9.439920e-003
9.439920e-003
9.439920e-003
9.439920e-003
9.439920e-003
9.439920e-003
9.439920e-003
9.439920e-003
9.439920e-003
9.439920e-003
9.439920e-003
9.439920e-003
9.439920e-003
9.439920e-003
9.439920e-003
9.439920e-003
9.439920e-003
9.439920e-003
9.439920e-003
9.439921e-003
9.439921e-003
9.439921e-003
9.439922e-003
9.439922e-003
9.439923e-003
9.439924e-003
9.439925e-003
9.439926e-003
9.439927e-003
9.439928e-003
9.439929e-003
9.439930e-003
9.439932e-003
9.439933e-003
9.439934e-003
9.439935e-003
9.439936e-003
9.439937e-003
9.439938e-003
9.439939e-003
9.439940e-003
9.439940e-003
9.439941e-003
9.439941e-003
9.439942e-003
9.439942e-003
9.439942e-003
9.439942e-003
9.439942e-003
9.439941e-003
9.439941e-003
9.439940e-003
9.439940e-003
9.439939e-003
9.439938e-003
9.439938e-003
9.439937e-003
9.439935e-003
9.439934e-003
9.439933e-003
9.439932e-003
9.439931e-003
9.439929e-003
9.439928e-003
9.439927e-003
9.439926e-003
9.439925e-003
9.439924e-003
9.439923e-003
9.439922e-003
9.439922e-003
9.439921e-003
9.439921e-003
9.439921e-003
9.439920e-003
9.439920e-003
9.439920e-003
9.439920e-003
9.439920e-003
9.439920e-003
9.439920e-003
9.439920e-003
9.439920e-003
9.439920e-003
9.439920e-003
9.439920e-003
9.439920e-003
9.439920e-003
9.439920e-003
9.439920e-003
9.439920e-003
9.439920e-003
9.439920e-003
9.439920e-003
9.439920e-003
9.439920e-003
9.439920e-003
9.439920e-003
9.439920e-003
9.439920e-003
9.439920e-003
9.439920e-003
9.439920e-003
9.439920e-003
9.439920e-003
9.439920e-003
9.439920e-003
9.439920e-003
9.439920e-003
9.439920e-003
9.439920e-003
9.439920e-003
9.439920e-003
9.439920e-003
9.439920e-003
9.439920e-003
9.439920e-003
9.439921e-003
9.439921e-003
9.439921e-003
9.439922e-003
9.439923e-003
9.439923e-003
9.439924e-003
9.439926e-003
9.439927e-003
9.439929e-003
9.439930e-003
9.439932e-003
9.439934e-003
9.439935e-003
9.439937e-003
9.439939e-003
9.439940e-003
9.439942e-003
9.439943e-003
9.439944e-003
9.439945e-003
9.439945e-003
9.439946e-003
9.439946e-003
9.439946e-003
9.439946e-003
9.439946e-003
9.439946e-003
9.439946e-003
9.439946e-003
9.439946e-003
9.439946e-003
9.439945e-003
9.439945e-003
9.439945e-003
9.439945e-003
9.439944e-003
9.439944e-003
9.439943e-003
9.439943e-003
9.439942e-003
9.439941e-003
9.439940e-003
9.439938e-003
9.439937e-003
9.439935e-003
9.439933e-003
9.439932e-003
9.439930e-003
9.439928e-003
9.439927e-003
9.439925e-003
9.439924e-003
9.439923e-003
9.439922e-003
9.439922e-003
9.439921e-003
9.439921e-003
9.439920e-003
9.439920e-003
9.439920e-003
9.439920e-003
9.439920e-003
9.439920e-003
9.439920e-003
9.439920e-003
9.439920e-003
9.439920e-003
9.439920e-003
9.439920e-003
9.439920e-003
9.439920e-003
9.439920e-003
9.439920e-003
9.439920e-003
9.439920e-003
9.439920e-003
9.439920e-003
9.439920e-003
9.439920e-003
9.439920e-003
9.439920e-003
9.439920e-003
9.439920e-003
9.439920e-003
9.439920e-003
9.439920e-003
9.439920e-003
9.439920e-003
9.439920e-003
9.439920e-003
9.439920e-003
9.439920e-003
9.439920e-003
9.439920e-003
9.439920e-003
9.439920e-003
9.439920e-003
9.439921e-003
9.439921e-003
9.439921e-003
9.439922e-003
9.439923e-003
9.439924e-003
9.439925e-003
9.439927e-003
9.439928e-003
9.439930e-003
9.439932e-003
9.439935e-003
9.439937e-003
9.439939e-003
9.439941e-003
9.439943e-003
9.439944e-003
9.439945e-003
9.439946e-003
9.439946e-003
9.439946e-003
9.439945e-003
9.439944e-003
9.439942e-003
9.439941e-003
9.439939e-003
9.439937e-003
9.439935e-003
9.439933e-003
9.439931e-003
9.439930e-003
9.439929e-003
9.439928e-003
9.439928e-003
9.439928e-003
9.439929e-003
9.439930e-003
9.439931e-003
9.439933e-003
9.439935e-003
9.439937e-003
9.439939e-003
9.439940e-003
9.439941e-003
9.439942e-003
9.439942e-003
9.439942e-003
9.439941e-003
9.439940e-003
9.439938e-003
9.439936e-003
9.439934e-003
9.439931e-003
9.439929e-003
9.439927e-003
9.439926e-003
9.439924e-003
9.439923e-003
9.439922e-003
9.439922e-003
9.439921e-003
9.439921e-003
9.439920e-003
9.439920e-003
9.439920e-003
9.439920e-003
9.439920e-003
9.439920e-003
9.439920e-003
9.439920e-003
9.439920e-003
9.439920e-003
9.439920e-003
9.439920e-003
9.439920e-003
9.439920e-003
9.439920e-003
9.439920e-003
9.439920e-003
9.439920e-003
9.439920e-003
9.439920e-003
9.439920e-003
9.439920e-003
9.439920e-003
9.439920e-003
9.439920e-003
9.439920e-003
9.439920e-003
9.439920e-003
9.439920e-003
9.439920e-003
9.439920e-003
9.439920e-003
9.439920e-003
9.439920e-003
9.439920e-003
9.439920e-003
9.439920e-003
9.439921e-003
9.439921e-003
9.439922e-003
9.439923e-003
9.439924e-003
9.439925e-003
9.439927e-003
9.439929e-003
9.439931e-003
9.439934e-003
9.439937e-003
9.439939e-003
9.439942e-003
9.439944e-003
9.439945e-003
9.439946e-003
9.439945e-003
9.439943e-003
9.439940e-003
9.439936e-003
9.439930e-003
9.439923e-003
9.439916e-003
9.439907e-003
9.439898e-003
9.439889e-003
9.439879e-003
9.439871e-003
9.439862e-003
9.439855e-003
9.439848e-003
9.439843e-003
9.439840e-003
9.439838e-003
9.439838e-003
9.439840e-003
9.439843e-003
9.439849e-003
9.439856e-003
9.439865e-003
9.439875e-003
9.439885e-003
9.439895e-003
9.439906e-003
9.439915e-003
9.439923e-003
9.439930e-003
9.439936e-003
9.439939e-003
9.439941e-003
9.439942e-003
9.439941e-003
9.439940e-003
9.439938e-003
9.439935e-003
9.439932e-003
9.439930e-003
9.439928e-003
9.439926e-003
9.439924e-003
9.439923e-003
9.439922e-003
9.439921e-003
9.439921e-003
9.439921e-003
9.439920e-003
9.439920e-003
9.439920e-003
9.439920e-003
9.439920e-003
9.439920e-003
9.439920e-003
9.439920e-003
9.439920e-003
9.439920e-003
9.439920e-003
9.439920e-003
9.439920e-003
9.439920e-003
9.439920e-003
9.439920e-003
9.439920e-003
9.439920e-003
9.439920e-003
9.439920e-003
9.439920e-003
9.439920e-003
9.439920e-003
9.439920e-003
9.439920e-003
9.439920e-003
9.439920e-003
9.439920e-003
9.439920e-003
9.439920e-003
9.439920e-003
9.439920e-003
9.439920e-003
9.439921e-003
9.439921e-003
9.439922e-003
9.439922e-003
9.439923e-003
9.439925e-003
9.439927e-003
9.439929e-003
9.439932e-003
9.439935e-003
9.439938e-003
9.439941e-003
9.439944e-003
9.439946e-003
9.439946e-003
9.439945e-003
9.439941e-003
9.439934e-003
9.439923e-003
9.439909e-003
9.439892e-003
9.439871e-003
9.439847e-003
9.439820e-003
9.439792e-003
9.439761e-003
9.439730e-003
9.439700e-003
9.439670e-003
9.439641e-003
9.439615e-003
9.439592e-003
9.439573e-003
9.439558e-003
9.439548e-003
9.439544e-003
9.439545e-003
9.439552e-003
9.439564e-003
9.439582e-003
9.439606e-003
9.439634e-003
9.439665e-003
9.439699e-003
9.439735e-003
9.439770e-003
9.439804e-003
9.439835e-003
9.439863e-003
9.439887e-003
9.439906e-003
9.439921e-003
9.439931e-003
9.439938e-003
9.439941e-003
9.439942e-003
9.439941e-003
9.439939e-003
9.439936e-003
9.439933e-003
9.439930e-003
9.439927e-003
9.439925e-003
9.439924e-003
9.439923e-003
9.439922e-003
9.439921e-003
9.439921e-003
9.439920e-003
9.439920e-003
9.439920e-003
9.439920e-003
9.439920e-003
9.439920e-003
9.439920e-003
9.439920e-003
9.439920e-003
9.439920e-003
9.439920e-003
9.439920e-003
9.439920e-003
9.439920e-003
9.439920e-003
9.439920e-003
9.439920e-003
9.439920e-003
9.439920e-003
9.439920e-003
9.439920e-003
9.439920e-003
9.439920e-003
9.439920e-003
9.439920e-003
9.439920e-003
9.439920e-003
9.439920e-003
9.439920e-003
9.439920e-003
9.439920e-003
9.439921e-003
9.439921e-003
9.439922e-003
9.439923e-003
9.439924e-003
9.439926e-003
9.439929e-003
9.439932e-003
9.439935e-003
9.439939e-003
9.439942e-003
9.439945e-003
9.439947e-003
9.439946e-003
9.439942e-003
9.439932e-003
9.439917e-003
9.439894e-003
9.439863e-003
9.439824e-003
9.439775e-003
9.439717e-003
9.439650e-003
9.439577e-003
9.439497e-003
9.439414e-003
9.439327e-003
9.439241e-003
9.439155e-003
9.439073e-003
9.438997e-003
9.438927e-003
9.438866e-003
9.438816e-003
9.438777e-003
9.438752e-003
9.438741e-003
9.438745e-003
9.438764e-003
9.438799e-003
9.438849e-003
9.438913e-003
9.438990e-003
9.439076e-003
9.439170e-003
9.439269e-003
9.439369e-003
9.439467e-003
9.439559e-003
9.439644e-003
9.439718e-003
9.439782e-003
9.439833e-003
9.439873e-003
9.439902e-003
9.439922e-003
9.439934e-003
9.439940e-003
9.439942e-003
9.439941e-003
9.439939e-003
9.439936e-003
9.439932e-003
9.439929e-003
9.439927e-003
9.439925e-003
9.439923e-003
9.439922e-003
9.439921e-003
9.439921e-003
9.439920e-003
9.439920e-003
9.439920e-003
9.439920e-003
9.439920e-003
9.439920e-003
9.439920e-003
9.439920e-003
9.439920e-003
9.439920e-003
9.439920e-003
9.439920e-003
9.439920e-003
9.439920e-003
9.439920e-003
9.439920e-003
9.439920e-003
9.439920e-003
9.439920e-003
9.439920e-003
9.439920e-003
9.439920e-003
9.439920e-003
9.439920e-003
9.439920e-003
9.439920e-003
9.439920e-003
9.439920e-003
9.439920e-003
9.439921e-003
9.439921e-003
9.439922e-003
9.439923e-003
9.439925e-003
9.439928e-003
9.439931e-003
9.439934e-003
9.439938e-003
9.439943e-003
9.439946e-003
9.439948e-003
9.439946e-003
9.439939e-003
9.439924e-003
9.439899e-003
9.439860e-003
9.439804e-003
9.439730e-003
9.439634e-003
9.439517e-003
9.439378e-003
9.439217e-003
9.439038e-003
9.438843e-003
9.438635e-003
9.438419e-003
9.438200e-003
9.437981e-003
9.437768e-003
9.437565e-003
9.437376e-003
9.437206e-003
9.437059e-003
9.436937e-003
9.436845e-003
9.436785e-003
9.436760e-003
9.436771e-003
9.436820e-003
9.436907e-003
9.437031e-003
9.437189e-003
9.437378e-003
9.437593e-003
9.437828e-003
9.438077e-003
9.438330e-003
9.438581e-003
9.438821e-003
9.439044e-003
9.439245e-003
9.439419e-003
9.439565e-003
9.439682e-003
9.439773e-003
9.439839e-003
9.439885e-003
9.439915e-003
9.439932e-003
9.439940e-003
9.439942e-003
9.439941e-003
9.439938e-003
9.439934e-003
9.439931e-003
9.439928e-003
9.439925e-003
9.439924e-003
9.439922e-003
9.439921e-003
9.439921e-003
9.439920e-003
9.439920e-003
9.439920e-003
9.439920e-003
9.439920e-003
9.439920e-003
9.439920e-003
9.439920e-003
9.439920e-003
9.439920e-003
9.439920e-003
9.439920e-003
9.439920e-003
9.439920e-003
9.439920e-003
9.439920e-003
9.439920e-003
9.439920e-003
9.439920e-003
9.439920e-003
9.439920e-003
9.439920e-003
9.439920e-003
9.439920e-003
9.439920e-003
9.439920e-003
9.439920e-003
9.439921e-003
9.439922e-003
9.439923e-003
9.439924e-003
9.439926e-003
9.439929e-003
9.439933e-003
9.439937e-003
9.439942e-003
9.439946e-003
9.439949e-003
9.439947e-003
9.439940e-003
9.439921e-003
9.439887e-003
9.439831e-003
9.439748e-003
9.439630e-003
9.439472e-003
9.439268e-003
9.439014e-003
9.438711e-003
9.438357e-003
9.437957e-003
9.437516e-003
9.437042e-003
9.436544e-003
9.436031e-003
9.435515e-003
9.435004e-003
9.434511e-003
9.434044e-003
9.433614e-003
9.433227e-003
9.432894e-003
9.432621e-003
9.432415e-003
9.432282e-003
9.432228e-003
9.432256e-003
9.432370e-003
9.432568e-003
9.432851e-003
9.433213e-003
9.433647e-003
9.434143e-003
9.434688e-003
9.435267e-003
9.435862e-003
9.436455e-003
9.437030e-003
9.437569e-003
9.438061e-003
9.438494e-003
9.438864e-003
9.439168e-003
9.439409e-003
9.439593e-003
9.439727e-003
9.439819e-003
9.439879e-003
9.439915e-003
9.439934e-003
9.439941e-003
9.439943e-003
9.439940e-003
9.439937e-003
9.439933e-003
9.439929e-003
9.439926e-003
9.439924e-003
9.439923e-003
9.439922e-003
9.439921e-003
9.439921e-003
9.439920e-003
9.439920e-003
9.439920e-003
9.439920e-003
9.439920e-003
9.439920e-003
9.439920e-003
9.439920e-003
9.439920e-003
9.439920e-003
9.439920e-003
9.439920e-003
9.439920e-003
9.439920e-003
9.439920e-003
9.439920e-003
9.439920e-003
9.439920e-003
9.439920e-003
9.439920e-003
9.439920e-003
9.439920e-003
9.439920e-003
9.439921e-003
9.439921e-003
9.439922e-003
9.439923e-003
9.439924e-003
9.439927e-003
9.439930e-003
9.439934e-003
9.439939e-003
9.439945e-003
9.439949e-003
9.439949e-003
9.439943e-003
9.439925e-003
9.439888e-003
9.439822e-003
9.439716e-003
9.439557e-003
9.439331e-003
9.439024e-003
9.438623e-003
9.438119e-003
9.437505e-003
9.436782e-003
9.435952e-003
9.435026e-003
9.434018e-003
9.432946e-003
9.431831e-003
9.430694e-003
9.429559e-003
9.428447e-003
9.427379e-003
9.426376e-003
9.425457e-003
9.424637e-003
9.423933e-003
9.423359e-003
9.422929e-003
9.422654e-003
9.422545e-003
9.422610e-003
9.422854e-003
9.423278e-003
9.423880e-003
9.424653e-003
9.425583e-003
9.426650e-003
9.427828e-003
9.429088e-003
9.430392e-003
9.431705e-003
9.432988e-003
9.434206e-003
9.435328e-003
9.436329e-003
9.437196e-003
9.437921e-003
9.438506e-003
9.438962e-003
9.439303e-003
9.439548e-003
9.439714e-003
9.439822e-003
9.439886e-003
9.439922e-003
9.439938e-003
9.439943e-003
9.439942e-003
9.439938e-003
9.439934e-003
9.439930e-003
9.439927e-003
9.439924e-003
9.439923e-003
9.439922e-003
9.439921e-003
9.439921e-003
9.439920e-003
9.439920e-003
9.439920e-003
9.439920e-003
9.439920e-003
9.439920e-003
9.439920e-003
9.439920e-003
9.439920e-003
9.439920e-003
9.439920e-003
9.439920e-003
9.439920e-003
9.439920e-003
9.439920e-003
9.439920e-003
9.439920e-003
9.439920e-003
9.439920e-003
9.439920e-003
9.439920e-003
9.439921e-003
9.439921e-003
9.439922e-003
9.439923e-003
9.439925e-003
9.439928e-003
9.439931e-003
9.439936e-003
9.439942e-003
9.439947e-003
9.439950e-003
9.439948e-003
9.439935e-003
9.439902e-003
9.439837e-003
9.439724e-003
9.439541e-003
9.439263e-003
9.438863e-003
9.438311e-003
9.437579e-003
9.436642e-003
9.435485e-003
9.434100e-003
9.432489e-003
9.430667e-003
9.428660e-003
9.426502e-003
9.424233e-003
9.421900e-003
9.419548e-003
9.417223e-003
9.414968e-003
9.412823e-003
9.410825e-003
9.409007e-003
9.407399e-003
9.406028e-003
9.404918e-003
9.404092e-003
9.403571e-003
9.403372e-003
9.403510e-003
9.403995e-003
9.404832e-003
9.406018e-003
9.407541e-003
9.409381e-003
9.411504e-003
9.413866e-003
9.416412e-003
9.419074e-003
9.421782e-003
9.424458e-003
9.427029e-003
9.429426e-003
9.431596e-003
9.433499e-003
9.435115e-003
9.436440e-003
9.437490e-003
9.438290e-003
9.438877e-003
9.439290e-003
9.439566e-003
9.439742e-003
9.439847e-003
9.439904e-003
9.439932e-003
9.439942e-003
9.439943e-003
9.439940e-003
9.439935e-003
9.439931e-003
9.439927e-003
9.439925e-003
9.439923e-003
9.439922e-003
9.439921e-003
9.439921e-003
9.439920e-003
9.439920e-003
9.439920e-003
9.439920e-003
9.439920e-003
9.439920e-003
9.439920e-003
9.439920e-003
9.439920e-003
9.439920e-003
9.439920e-003
9.439920e-003
9.439920e-003
9.439920e-003
9.439920e-003
9.439920e-003
9.439920e-003
9.439920e-003
9.439920e-003
9.439920e-003
9.439921e-003
9.439922e-003
9.439923e-003
9.439925e-003
9.439928e-003
9.439932e-003
9.439937e-003
9.439943e-003
9.439949e-003
9.439951e-003
9.439946e-003
9.439923e-003
9.439871e-003
9.439770e-003
9.439591e-003
9.439299e-003
9.438850e-003
9.438190e-003
9.437262e-003
9.436010e-003
9.434380e-003
9.432331e-003
9.429838e-003
9.426900e-003
9.423538e-003
9.419795e-003
9.415737e-003
9.411442e-003
9.406999e-003
9.402500e-003
9.398034e-003
9.393686e-003
9.389531e-003
9.385635e-003
9.382056e-003
9.378840e-003
9.376032e-003
9.373666e-003
9.371776e-003
9.370390e-003
9.369535e-003
9.369236e-003
9.369512e-003
9.370382e-003
9.371856e-003
9.373935e-003
9.376612e-003
9.379862e-003
9.383647e-003
9.387906e-003
9.392557e-003
9.397497e-003
9.402602e-003
9.407735e-003
9.412753e-003
9.417517e-003
9.421904e-003
9.425818e-003
9.429196e-003
9.432014e-003
9.434283e-003
9.436043e-003
9.437358e-003
9.438301e-003
9.438951e-003
9.439377e-003
9.439643e-003
9.439799e-003
9.439884e-003
9.439924e-003
9.439940e-003
9.439943e-003
9.439940e-003
9.439936e-003
9.439931e-003
9.439927e-003
9.439925e-003
9.439923e-003
9.439922e-003
9.439921e-003
9.439920e-003
9.439920e-003
9.439920e-003
9.439920e-003
9.439920e-003
9.439920e-003
9.439920e-003
9.439920e-003
9.439920e-003
9.439920e-003
9.439920e-003
9.439920e-003
9.439920e-003
9.439920e-003
9.439920e-003
9.439920e-003
9.439920e-003
9.439920e-003
9.439920e-003
9.439921e-003
9.439922e-003
9.439923e-003
9.439925e-003
9.439928e-003
9.439932e-003
9.439938e-003
9.439945e-003
9.439950e-003
9.439952e-003
9.439942e-003
9.439910e-003
9.439835e-003
9.439689e-003
9.439429e-003
9.438996e-003
9.438316e-003
9.437297e-003
9.435835e-003
9.433821e-003
9.431150e-003
9.427736e-003
9.423520e-003
9.418490e-003
9.412678e-003
9.406169e-003
9.399089e-003
9.391598e-003
9.383873e-003
9.376096e-003
9.368437e-003
9.361049e-003
9.354063e-003
9.347580e-003
9.341679e-003
9.336416e-003
9.331829e-003
9.327941e-003
9.324767e-003
9.322316e-003
9.320596e-003
9.319612e-003
9.319375e-003
9.319897e-003
9.321194e-003
9.323286e-003
9.326198e-003
9.329950e-003
9.334560e-003
9.340030e-003
9.346338e-003
9.353428e-003
9.361200e-003
9.369503e-003
9.378135e-003
9.386856e-003
9.395399e-003
9.403503e-003
9.410932e-003
9.417506e-003
9.423113e-003
9.427721e-003
9.431365e-003
9.434138e-003
9.436165e-003
9.437587e-003
9.438543e-003
9.439157e-003
9.439532e-003
9.439747e-003
9.439862e-003
9.439917e-003
9.439938e-003
9.439943e-003
9.439941e-003
9.439936e-003
9.439931e-003
9.439927e-003
9.439925e-003
9.439923e-003
9.439922e-003
9.439921e-003
9.439920e-003
9.439920e-003
9.439920e-003
9.439920e-003
9.439920e-003
9.439920e-003
9.439920e-003
9.439920e-003
9.439920e-003
9.439920e-003
9.439920e-003
9.439920e-003
9.439920e-003
9.439920e-003
9.439920e-003
9.439920e-003
9.439920e-003
9.439921e-003
9.439922e-003
9.439923e-003
9.439925e-003
9.439928e-003
9.439933e-003
9.439939e-003
9.439945e-003
9.439951e-003
9.439952e-003
9.439939e-003
9.439897e-003
9.439799e-003
9.439604e-003
9.439250e-003
9.438650e-003
9.437684e-003
9.436206e-003
9.434037e-003
9.430987e-003
9.426863e-003
9.421503e-003
9.414798e-003
9.406723e-003
9.397356e-003
9.386885e-003
9.375593e-003
9.363831e-003
9.351987e-003
9.340437e-003
9.329518e-003
9.319501e-003
9.310580e-003
9.302870e-003
9.296413e-003
9.291190e-003
9.287135e-003
9.284145e-003
9.282094e-003
9.280846e-003
9.280260e-003
9.280202e-003
9.280553e-003
9.281215e-003
9.282122e-003
9.283249e-003
9.284624e-003
9.286330e-003
9.288516e-003
9.291383e-003
9.295170e-003
9.300129e-003
9.306478e-003
9.314359e-003
9.323795e-003
9.334656e-003
9.346648e-003
9.359337e-003
9.372189e-003
9.384646e-003
9.396196e-003
9.406441e-003
9.415139e-003
9.422208e-003
9.427713e-003
9.431821e-003
9.434761e-003
9.436776e-003
9.438099e-003
9.438927e-003
9.439421e-003
9.439698e-003
9.439842e-003
9.439910e-003
9.439937e-003
9.439943e-003
9.439941e-003
9.439936e-003