# vtk DataFile Version 3.0
vtk output
ASCII
DATASET STRUCTURED_POINTS
DIMENSIONS 100 100 1
SPACING 1 1 1
ORIGIN 0 0 0
POINT_DATA 10000
SCALARS SFBox_profile double
LOOKUP_TABLE default 
0.000000e+000
0.000000e+000
0.000000e+000
0.000000e+000
0.000000e+000
0.000000e+000
0.000000e+000
0.000000e+000
0.000000e+000
0.000000e+000
0.000000e+000
0.000000e+000
0.000000e+000
0.000000e+000
0.000000e+000
0.000000e+000
0.000000e+000
0.000000e+000
0.000000e+000
0.000000e+000
0.000000e+000
0.000000e+000
0.000000e+000
0.000000e+000
0.000000e+000
0.000000e+000
0.000000e+000
0.000000e+000
0.000000e+000
0.000000e+000
0.000000e+000
0.000000e+000
0.000000e+000
0.000000e+000
0.000000e+000
0.000000e+000
0.000000e+000
0.000000e+000
0.000000e+000
0.000000e+000
0.000000e+000
0.000000e+000
0.000000e+000
0.000000e+000
0.000000e+000
0.000000e+000
0.000000e+000
0.000000e+000
0.000000e+000
0.000000e+000
0.000000e+000
0.000000e+000
0.000000e+000
0.000000e+000
0.000000e+000
0.000000e+000
0.000000e+000
0.000000e+000
0.000000e+000
0.000000e+000
0.000000e+000
0.000000e+000
0.000000e+000
0.000000e+000
0.000000e+000
0.000000e+000
0.000000e+000
0.000000e+000
0.000000e+000
0.000000e+000
0.000000e+000
0.000000e+000
0.000000e+000
0.000000e+000
0.000000e+000
0.000000e+000
0.000000e+000
0.000000e+000
0.000000e+000
0.000000e+000
0.000000e+000
0.000000e+000
0.000000e+000
0.000000e+000
0.000000e+000
0.000000e+000
0.000000e+000
0.000000e+000
0.000000e+000
0.000000e+000
0.000000e+000
0.000000e+000
0.000000e+000
0.000000e+000
0.000000e+000
0.000000e+000
0.000000e+000
0.000000e+000
0.000000e+000
0.000000e+000
2.219718e-008
1.665661e-008
7.543393e-009
-1.909856e-009
-8.400093e-009
-9.864529e-009
-6.413264e-009
-3.629345e-010
4.888804e-009
6.748769e-009
4.957278e-009
1.589704e-009
-6.462327e-010
-5.688028e-010
6.613115e-010
8.050235e-010
-1.241716e-009
-4.335664e-009
-6.108613e-009
-5.117339e-009
-2.055245e-009
1.059138e-009
2.793635e-009
3.400207e-009
4.153637e-009
5.808580e-009
7.820574e-009
9.009249e-009
8.805073e-009
7.749744e-009
6.861927e-009
6.673014e-009
6.920617e-009
7.043553e-009
6.807533e-009
6.433824e-009
6.260666e-009
6.403950e-009
6.714536e-009
6.936505e-009
6.860674e-009
6.430357e-009
5.825849e-009
5.427657e-009
5.540879e-009
6.042811e-009
6.366080e-009
5.993324e-009
5.039073e-009
4.245612e-009
4.267758e-009
4.953985e-009
5.452682e-009
5.110749e-009
4.201496e-009
3.636242e-009
3.940805e-009
4.653220e-009
4.863764e-009
4.308015e-009
3.742092e-009
4.114667e-009
5.445762e-009
6.712537e-009
6.927097e-009
6.213614e-009
5.644095e-009
5.975518e-009
6.699106e-009
6.509467e-009
4.728791e-009
2.126304e-009
1.978036e-010
-3.488105e-010
-2.646914e-010
-8.424159e-010
-2.384714e-009
-3.722434e-009
-3.349439e-009
-1.026455e-009
1.812022e-009
3.293089e-009
2.753777e-009
1.178198e-009
6.098328e-011
-7.792297e-011
-1.183178e-011
-7.040058e-010
-2.011093e-009
-2.616416e-009
-1.345652e-009
1.425762e-009
3.740432e-009
3.598513e-009
7.597819e-010
-2.827756e-009
-4.453398e-009
-2.800435e-009
9.424892e-010
3.952485e-009
2.441127e-009
2.090149e-009
1.330748e-009
2.178196e-010
-9.085699e-010
-1.481254e-009
-1.083138e-009
9.986430e-011
1.216747e-009
1.322146e-009
2.133788e-010
-1.246131e-009
-1.763701e-009
-7.537893e-010
1.081913e-009
2.355338e-009
2.258871e-009
1.278773e-009
6.517474e-010
1.119604e-009
2.238454e-009
2.902938e-009
2.487877e-009
1.420522e-009
6.616397e-010
7.255711e-010
1.270644e-009
1.589529e-009
1.371289e-009
9.257459e-010
7.439082e-010
9.693410e-010
1.330626e-009
1.491483e-009
1.360469e-009
1.074245e-009
7.953512e-010
5.997093e-010
5.007071e-010
4.641362e-010
3.715067e-010
6.747193e-011
-4.551825e-010
-9.421691e-010
-1.069816e-009
-8.185781e-010
-5.861499e-010
-8.077026e-010
-1.440060e-009
-1.924960e-009
-1.762867e-009
-1.094542e-009
-5.947730e-010
-7.328222e-010
-1.219156e-009
-1.305091e-009
-6.379129e-010
3.016006e-010
7.130713e-010
3.825628e-010
-6.192128e-011
1.338252e-010
9.654242e-010
1.640576e-009
1.467244e-009
6.622403e-010
1.483293e-010
5.425711e-010
1.462031e-009
1.934144e-009
1.470420e-009
6.173620e-010
3.679798e-010
1.068811e-009
2.012479e-009
2.164230e-009
1.249681e-009
4.920913e-011
-4.054638e-010
1.193162e-010
8.554168e-010
8.648432e-010
2.367348e-011
-8.586901e-010
-8.895092e-010
-2.493391e-011
8.668617e-010
8.687955e-010
-6.455597e-011
-1.039781e-009
-1.073856e-009
-4.075905e-011
1.179041e-009
1.479325e-009
5.207545e-010
-9.504883e-010
-1.724458e-009
-1.141071e-009
3.604618e-010
1.597520e-009
-2.021564e-008
-1.467921e-008
-5.929518e-009
2.495292e-009
7.523861e-009
7.945776e-009
4.762259e-009
3.299220e-010
-3.103650e-009
-4.503040e-009
-4.161170e-009
-2.986028e-009
-1.672369e-009
-3.723689e-010
1.080320e-009
2.781393e-009
4.568508e-009
6.087979e-009
6.955753e-009
6.894905e-009
5.845035e-009
4.029257e-009
1.893828e-009
-1.101120e-010
-1.757356e-009
-3.079589e-009
-4.169261e-009
-4.984147e-009
-5.387429e-009
-5.375459e-009
-5.201778e-009
-5.213826e-009
-5.567717e-009
-6.149990e-009
-6.793987e-009
-7.516185e-009
-8.470017e-009
-9.674609e-009
-1.088082e-008
-1.178685e-008
-1.237248e-008
-1.293682e-008
-1.375912e-008
-1.476740e-008
-1.561447e-008
-1.607904e-008
-1.630833e-008
-1.660412e-008
-1.701713e-008
-1.726135e-008
-1.706996e-008
-1.655266e-008
-1.608733e-008
-1.584525e-008
-1.552633e-008
-1.466304e-008
-1.317332e-008
-1.151627e-008
-1.024487e-008
-9.452428e-009
-8.741393e-009
-7.740662e-009
-6.564849e-009
-5.685702e-009
-5.373460e-009
-5.356783e-009
-5.084215e-009
-4.278002e-009
-3.158599e-009
-2.121023e-009
-1.267646e-009
-3.314237e-010
9.516295e-010
2.466015e-009
3.752503e-009
4.389394e-009
4.291896e-009
3.647206e-009
2.637557e-009
1.312943e-009
-2.510638e-010
-1.739537e-009
-2.635358e-009
-2.534957e-009
-1.462569e-009
1.021561e-010
1.492802e-009
2.185931e-009
1.975851e-009
9.801057e-010
-4.139669e-010
-1.623159e-009
-2.045489e-009
-1.378945e-009
8.835456e-011
1.512981e-009
1.975874e-009
1.136275e-009
-4.521386e-010
-1.681093e-009
-2.625969e-008
-1.930383e-008
-8.156622e-009
2.832005e-009
9.632570e-009
1.034208e-008
5.977493e-009
-2.391137e-010
-4.764704e-009
-5.688347e-009
-3.550557e-009
-5.577192e-010
1.181839e-009
1.110090e-009
3.521489e-010
5.474665e-010
2.382147e-009
5.005725e-009
6.754366e-009
6.518281e-009
4.580316e-009
2.246865e-009
6.635094e-010
-9.386659e-011
-8.677649e-010
-2.442995e-009
-4.743301e-009
-6.971595e-009
-8.489945e-009
-9.501569e-009
-1.084225e-008
-1.313602e-008
-1.621604e-008
-1.938851e-008
-2.219999e-008
-2.485802e-008
-2.788257e-008
-3.142674e-008
-3.504063e-008
-3.812016e-008
-4.051503e-008
-4.262801e-008
-4.493803e-008
-4.750466e-008
-4.996797e-008
-5.195941e-008
-5.341620e-008
-5.449472e-008
-5.528950e-008
-5.573896e-008
-5.577981e-008
-5.546581e-008
-5.484944e-008
-5.379580e-008
-5.203034e-008
-4.942167e-008
-4.616220e-008
-4.260125e-008
-3.891493e-008
-3.501418e-008
-3.080087e-008
-2.643910e-008
-2.228485e-008
-1.855552e-008
-1.516393e-008
-1.193692e-008
-8.934324e-009
-6.432576e-009
-4.560923e-009
-3.055293e-009
-1.495429e-009
2.080251e-010
1.672719e-009
2.477362e-009
2.691118e-009
2.841463e-009
3.285120e-009
3.684626e-009
3.257985e-009
1.631356e-009
-5.969602e-010
-2.236807e-009
-2.502767e-009
-1.630863e-009
-5.092477e-010
2.432101e-010
7.500636e-010
1.423614e-009
2.152854e-009
2.135578e-009
6.830290e-010
-1.774862e-009
-3.619482e-009
-3.226573e-009
-4.666315e-010
2.876132e-009
4.321034e-009
2.655735e-009
-9.851037e-010
-3.900563e-009
-1.004335e-008
-7.591888e-009
-3.475186e-009
8.635573e-010
3.749672e-009
4.039950e-009
1.879844e-009
-1.151041e-009
-2.866133e-009
-1.912618e-009
1.178612e-009
4.253745e-009
5.090859e-009
3.119696e-009
-1.107849e-010
-2.189783e-009
-1.824276e-009
1.555398e-010
1.648049e-009
1.203593e-009
-7.554536e-010
-2.525949e-009
-2.906751e-009
-2.427764e-009
-2.864221e-009
-5.583529e-009
-1.038910e-008
-1.594682e-008
-2.124317e-008
-2.653268e-008
-3.286697e-008
-4.081872e-008
-4.979511e-008
-5.861092e-008
-6.662400e-008
-7.420822e-008
-8.214216e-008
-9.066368e-008
-9.920734e-008
-1.070097e-007
-1.138403e-007
-1.200895e-007
-1.262323e-007
-1.323219e-007
-1.380040e-007
-1.428951e-007
-1.468409e-007
-1.498577e-007
-1.519721e-007
-1.531948e-007
-1.535604e-007
-1.530481e-007
-1.514374e-007
-1.483600e-007
-1.436104e-007
-1.373818e-007
-1.300870e-007
-1.219062e-007
-1.126123e-007
-1.019544e-007
-9.019268e-008
-7.811193e-008
-6.642422e-008
-5.524033e-008
-4.428102e-008
-3.362354e-008
-2.406302e-008
-1.654452e-008
-1.123339e-008
-7.321580e-009
-3.893073e-009
-9.187657e-010
7.937294e-010
7.214027e-010
-4.345702e-010
-1.142762e-009
-4.605124e-010
1.037342e-009
1.885032e-009
1.297104e-009
1.093055e-011
-5.188236e-010
2.862056e-010
1.475682e-009
1.589754e-009
2.787156e-010
-1.220591e-009
-1.314895e-009
2.424369e-010
1.948424e-009
1.940841e-009
-1.298897e-010
-2.587245e-009
-3.148756e-009
-1.023052e-009
2.238965e-009
3.960646e-009
2.603248e-009
-8.762964e-010
-3.753601e-009
1.530750e-008
1.082796e-008
4.064149e-009
-1.936511e-009
-5.040712e-009
-5.021949e-009
-3.174250e-009
-9.977101e-010
8.930566e-010
2.758810e-009
4.804314e-009
6.402446e-009
6.392173e-009
4.239359e-009
8.521951e-010
-1.941294e-009
-2.924098e-009
-2.585000e-009
-2.647561e-009
-4.438488e-009
-7.713142e-009
-1.113874e-008
-1.394798e-008
-1.705159e-008
-2.244057e-008
-3.147310e-008
-4.377883e-008
-5.783577e-008
-7.252903e-008
-8.804772e-008
-1.052808e-007
-1.244971e-007
-1.447755e-007
-1.647382e-007
-1.837171e-007
-2.021084e-007
-2.206438e-007
-2.394608e-007
-2.579402e-007
-2.753368e-007
-2.914055e-007
-3.063834e-007
-3.205015e-007
-3.336519e-007
-3.455058e-007
-3.557958e-007
-3.643828e-007
-3.711274e-007
-3.758516e-007
-3.784580e-007
-3.789524e-007
-3.772227e-007
-3.728453e-007
-3.652907e-007
-3.544137e-007
-3.406440e-007
-3.245358e-007
-3.061303e-007
-2.849407e-007
-2.607167e-007
-2.341650e-007
-2.067272e-007
-1.795646e-007
-1.528930e-007
-1.264891e-007
-1.008157e-007
-7.738876e-008
-5.779944e-008
-4.239103e-008
-3.010499e-008
-1.975462e-008
-1.132994e-008
-5.824080e-009
-3.719984e-009
-3.850098e-009
-4.010238e-009
-2.778131e-009
-6.088534e-010
9.732220e-010
1.194958e-009
8.759641e-010
1.392564e-009
2.946443e-009
4.103740e-009
3.206393e-009
2.265578e-010
-2.892828e-009
-3.852266e-009
-2.040899e-009
9.305926e-010
2.673464e-009
2.056415e-009
2.390616e-012
-1.533377e-009
-1.338039e-009
1.301387e-010
1.348206e-009
1.176619e-009
-1.719409e-010
-1.419458e-009
2.888317e-008
2.059942e-008
7.881233e-009
-3.652408e-009
-9.599030e-009
-8.930479e-009
-4.045820e-009
1.213603e-009
4.128994e-009
4.431453e-009
3.630286e-009
3.220647e-009
3.441906e-009
3.511897e-009
2.753631e-009
1.268552e-009
-5.035443e-010
-2.690183e-009
-6.229151e-009
-1.215260e-008
-2.076672e-008
-3.171484e-008
-4.487351e-008
-6.102510e-008
-8.145491e-008
-1.068276e-007
-1.365373e-007
-1.692360e-007
-2.039662e-007
-2.406992e-007
-2.797738e-007
-3.209453e-007
-3.631218e-007
-4.050354e-007
-4.460637e-007
-4.863294e-007
-5.260719e-007
-5.650583e-007
-6.026374e-007
-6.382376e-007
-6.716606e-007
-7.028870e-007
-7.317422e-007
-7.578734e-007
-7.810006e-007
-8.010322e-007
-8.178588e-007
-8.311267e-007
-8.403386e-007
-8.451573e-007
-8.454570e-007
-8.409940e-007
-8.311499e-007
-8.152150e-007
-7.929882e-007
-7.649482e-007
-7.316728e-007
-6.931455e-007
-6.488780e-007
-5.988797e-007
-5.444212e-007
-4.876289e-007
-4.302552e-007
-3.729922e-007
-3.161393e-007
-2.608524e-007
-2.094270e-007
-1.641110e-007
-1.256580e-007
-9.322276e-008
-6.573487e-008
-4.321011e-008
-2.651539e-008
-1.586743e-008
-9.815502e-009
-5.941852e-009
-2.588625e-009
2.312295e-010
1.665009e-009
1.587993e-009
1.128584e-009
1.587221e-009
2.995670e-009
3.963525e-009
3.056746e-009
3.171998e-010
-2.602299e-009
-3.793693e-009
-2.622795e-009
-8.779713e-011
2.119050e-009
2.853014e-009
2.058780e-009
4.585811e-010
-1.064861e-009
-1.872616e-009
-1.697897e-009
-6.806953e-010
6.500368e-010
1.575180e-009
1.960346e-008
1.372418e-008
4.720023e-009
-3.239629e-009
-6.711061e-009
-4.854622e-009
1.352812e-010
4.511255e-009
5.491412e-009
3.030671e-009
-4.759864e-010
-2.255087e-009
-1.270792e-009
1.229996e-009
2.900774e-009
1.920888e-009
-2.340377e-009
-9.888988e-009
-2.103186e-008
-3.671725e-008
-5.816568e-008
-8.636474e-008
-1.219058e-007
-1.650790e-007
-2.158818e-007
-2.738812e-007
-3.382005e-007
-4.077997e-007
-4.818135e-007
-5.595755e-007
-6.403152e-007
-7.229184e-007
-8.060789e-007
-8.886941e-007
-9.700572e-007
-1.049650e-006
-1.126827e-006
-1.200804e-006
-1.270952e-006
-1.337005e-006
-1.398870e-006
-1.456261e-006
-1.508608e-006
-1.555374e-006
-1.596383e-006
-1.631703e-006
-1.661178e-006
-1.684176e-006
-1.699852e-006
-1.707612e-006
-1.707158e-006
-1.698048e-006
-1.679393e-006
-1.650180e-006
-1.609934e-006
-1.558890e-006
-1.497419e-006
-1.425412e-006
-1.342512e-006
-1.249112e-006
-1.147021e-006
-1.038977e-006
-9.274786e-007
-8.142395e-007
-7.008756e-007
-5.899548e-007
-4.850349e-007
-3.894277e-007
-3.048933e-007
-2.315846e-007
-1.691741e-007
-1.178101e-007
-7.783852e-008
-4.872765e-008
-2.856912e-008
-1.484759e-008
-5.696643e-009
-3.245832e-010
1.723882e-009
1.490253e-009
5.955193e-010
3.219281e-010
8.406869e-010
1.428872e-009
1.392108e-009
7.084688e-010
-1.389189e-010
-7.235611e-010
-9.137621e-010
-6.663636e-010
1.114850e-010
1.284758e-009
2.171934e-009
1.839277e-009
8.582169e-012
-2.307917e-009
-3.329933e-009
-1.983623e-009
9.777929e-010
3.383821e-009
-4.670328e-009
-3.694493e-009
-2.252894e-009
-7.605320e-010
8.888230e-010
2.961492e-009
5.099064e-009
6.113127e-009
4.854337e-009
1.454515e-009
-2.353947e-009
-4.404438e-009
-3.909781e-009
-2.404645e-009
-3.032042e-009
-8.835101e-009
-2.150886e-008
-4.153210e-008
-6.933107e-008
-1.063109e-007
-1.548561e-007
-2.173589e-007
-2.950922e-007
-3.877469e-007
-4.938467e-007
-6.115964e-007
-7.394791e-007
-8.762153e-007
-1.020259e-006
-1.169398e-006
-1.320919e-006
-1.472258e-006
-1.621572e-006
-1.767715e-006
-1.909691e-006
-2.046178e-006
-2.175646e-006
-2.296955e-006
-2.409780e-006
-2.514386e-006
-2.610943e-006
-2.699092e-006
-2.778155e-006
-2.847725e-006
-2.907926e-006
-2.959023e-006
-3.000815e-006
-3.032479e-006
-3.053037e-006
-3.061863e-006
-3.058621e-006
-3.042711e-006
-3.012952e-006
-2.967953e-006
-2.906759e-006
-2.828997e-006
-2.734365e-006
-2.622188e-006
-2.491762e-006
-2.343268e-006
-2.178289e-006
-1.999410e-006
-1.809452e-006
-1.611319e-006
-1.408661e-006
-1.206453e-006
-1.010597e-006
-8.266872e-007
-6.589693e-007
-5.102321e-007
-3.822915e-007
-2.761724e-007
-1.917006e-007
-1.271404e-007
-7.958491e-008
-4.593338e-008
-2.357885e-008
-1.027376e-008
-3.622924e-009
-1.047385e-009
-3.892506e-010
-4.457287e-010
-7.608348e-010
-9.387853e-010
-3.878558e-010
1.121761e-009
2.824051e-009
3.294693e-009
1.769821e-009
-8.325443e-010
-2.449644e-009
-1.713889e-009
6.408562e-010
2.320289e-009
1.605179e-009
-9.374237e-010
-2.896195e-009
-2.281557e-009
5.310767e-010
3.077199e-009
-2.430736e-008
-1.702399e-008
-6.260167e-009
2.969980e-009
7.574741e-009
7.731123e-009
5.760138e-009
3.869318e-009
2.736519e-009
1.782994e-009
3.250204e-010
-1.836857e-009
-5.001930e-009
-1.062164e-008
-2.163738e-008
-4.167783e-008
-7.385488e-008
-1.202982e-007
-1.828215e-007
-2.639560e-007
-3.671426e-007
-4.955999e-007
-6.506277e-007
-8.307102e-007
-1.032149e-006
-1.250634e-006
-1.482391e-006
-1.724026e-006
-1.971537e-006
-2.219797e-006
-2.463291e-006
-2.697581e-006
-2.920147e-006
-3.129876e-006
-3.325818e-006
-3.506522e-006
-3.670559e-006
-3.817524e-006
-3.948353e-006
-4.064575e-006
-4.167265e-006
-4.256709e-006
-4.332966e-006
-4.396571e-006
-4.448570e-006
-4.489882e-006
-4.520731e-006
-4.540755e-006
-4.549656e-006
-4.547610e-006
-4.534960e-006
-4.511542e-006
-4.476402e-006
-4.428172e-006
-4.365558e-006
-4.287275e-006
-4.191493e-006
-4.075568e-006
-3.936497e-006
-3.771736e-006
-3.579633e-006
-3.359388e-006
-3.111171e-006
-2.836845e-006
-2.540887e-006
-2.230589e-006
-1.915206e-006
-1.604711e-006
-1.308897e-006
-1.036854e-006
-7.961846e-007
-5.917869e-007
-4.249275e-007
-2.935482e-007
-1.937247e-007
-1.211069e-007
-7.130284e-008
-3.946919e-008
-2.030069e-008
-9.035393e-009
-2.647923e-009
1.223866e-010
9.834481e-011
-1.057721e-009
-1.129890e-009
9.772385e-010
4.043762e-009
5.419362e-009
3.473960e-009
-6.747900e-010
-3.935844e-009
-3.914180e-009
-9.944674e-010
2.107153e-009
2.853076e-009
1.068463e-009
-1.178996e-009
-1.729614e-009
-3.605658e-010
1.209512e-009
-2.473255e-008
-1.595111e-008
-3.341950e-009
6.495549e-009
9.534862e-009
6.479096e-009
1.524811e-009
-1.067738e-009
5.271511e-011
2.796020e-009
3.418033e-009
-1.248766e-009
-1.302877e-008
-3.346501e-008
-6.542939e-008
-1.136993e-007
-1.840828e-007
-2.820626e-007
-4.121666e-007
-5.782157e-007
-7.834396e-007
-1.029508e-006
-1.314796e-006
-1.633339e-006
-1.975637e-006
-2.330875e-006
-2.688869e-006
-3.040435e-006
-3.376621e-006
-3.688395e-006
-3.967796e-006
-4.209742e-006
-4.412746e-006
-4.577790e-006
-4.706457e-006
-4.800107e-006
-4.860576e-006
-4.891212e-006
-4.896785e-006
-4.882209e-006
-4.851358e-006
-4.807049e-006
-4.751948e-006
-4.689248e-006
-4.622406e-006
-4.554395e-006
-4.487417e-006
-4.423418e-006
-4.364872e-006
-4.314933e-006
-4.276802e-006
-4.252904e-006
-4.244610e-006
-4.252446e-006
-4.276088e-006
-4.313663e-006
-4.360796e-006
-4.410226e-006
-4.452240e-006
-4.475334e-006
-4.466668e-006
-4.412755e-006
-4.301156e-006
-4.123065e-006
-3.875593e-006
-3.562604e-006
-3.194216e-006
-2.785904e-006
-2.357576e-006
-1.931867e-006
-1.530893e-006
-1.172253e-006
-8.663254e-007
-6.163476e-007
-4.205715e-007
-2.743830e-007
-1.710487e-007
-1.018203e-007
-5.699547e-008
-2.820455e-008
-1.026553e-008
-8.487397e-010
1.758987e-009
5.129169e-010
-8.256227e-010
1.005635e-010
2.707986e-009
4.405570e-009
3.258011e-009
-1.165548e-010
-3.125189e-009
-3.549573e-009
-1.387013e-009
1.397936e-009
2.729840e-009
2.058815e-009
4.340001e-010
-7.444652e-010
-9.590125e-010
-7.221212e-010
-7.800089e-009
-2.897180e-009
3.726902e-009
7.828408e-009
6.962599e-009
2.150153e-009
-2.890064e-009
-4.541851e-009
-2.220535e-009
6.469317e-010
-1.806128e-009
-1.520354e-008
-4.346278e-008
-8.975800e-008
-1.589171e-007
-2.589622e-007
-4.002753e-007
-5.929172e-007
-8.439486e-007
-1.156043e-006
-1.527066e-006
-1.949489e-006
-2.409404e-006
-2.886290e-006
-3.354873e-006
-3.788848e-006
-4.164614e-006
-4.463179e-006
-4.670241e-006
-4.775977e-006
-4.775734e-006
-4.671024e-006
-4.469197e-006
-4.181270e-006
-3.819303e-006
-3.395235e-006
-2.921414e-006
-2.411265e-006
-1.878602e-006
-1.335976e-006
-7.936703e-007
-2.602450e-007
2.561806e-007
7.473010e-007
1.205026e-006
1.622012e-006
1.991362e-006
2.305577e-006
2.555719e-006
2.731554e-006
2.822532e-006
2.818762e-006
2.711453e-006
2.493209e-006
2.159058e-006
1.708454e-006
1.147408e-006
4.897472e-007
-2.425593e-007
-1.019325e-006
-1.802214e-006
-2.546132e-006
-3.203103e-006
-3.728216e-006
-4.085637e-006
-4.253075e-006
-4.224623e-006
-4.012549e-006
-3.647437e-006
-3.174872e-006
-2.647869e-006
-2.117095e-006
-1.622883e-006
-1.191833e-006
-8.375520e-007
-5.629503e-007
-3.622615e-007
-2.232097e-007
-1.304575e-007
-6.991744e-008
-3.171635e-008
-1.006202e-008
-7.803452e-010
7.926466e-010
-3.658211e-010
-7.906237e-010
2.510181e-010
1.515300e-009
1.718353e-009
8.113676e-010
-2.852667e-010
-7.443137e-010
-4.474635e-010
2.281285e-010
8.804864e-010
1.239843e-009
1.092630e-009
3.523664e-010
-7.171379e-010
-1.513237e-009
1.191113e-008
1.046788e-008
8.134444e-009
5.469754e-009
2.679217e-009
-8.713271e-011
-2.304437e-009
-3.491568e-009
-4.642463e-009
-9.553404e-009
-2.472613e-008
-5.787328e-008
-1.166196e-007
-2.089698e-007
-3.452485e-007
-5.392747e-007
-8.065583e-007
-1.159427e-006
-1.601255e-006
-2.122355e-006
-2.698533e-006
-3.291745e-006
-3.852167e-006
-4.322008e-006
-4.641671e-006
-4.757557e-006
-4.629151e-006
-4.232891e-006
-3.562267e-006
-2.625726e-006
-1.444250e-006
-4.897687e-008
1.522021e-006
3.227968e-006
5.029207e-006
6.888952e-006
8.773094e-006
1.064992e-005
1.249105e-005
1.427292e-005
1.597689e-005
1.758778e-005
1.909194e-005
2.047642e-005
2.172910e-005
2.283847e-005
2.379239e-005
2.457650e-005
2.517329e-005
2.556243e-005
2.572175e-005
2.562820e-005
2.525836e-005
2.458935e-005
2.360102e-005
2.227961e-005
2.062197e-005
1.863898e-005
1.635856e-005
1.382888e-005
1.112136e-005
8.331405e-006
5.574148e-006
2.975180e-006
6.580982e-007
-1.269054e-006
-2.727494e-006
-3.680279e-006
-4.140407e-006
-4.169946e-006
-3.868155e-006
-3.351693e-006
-2.733736e-006
-2.108245e-006
-1.541833e-006
-1.072162e-006
-7.109554e-007
-4.504084e-007
-2.718395e-007
-1.542698e-007
-8.006734e-008
-3.635430e-008
-1.356685e-008
-3.876530e-009
-9.908805e-010
-7.168799e-010
-9.419340e-010
-7.877316e-010
1.221119e-010
1.631335e-009
2.834372e-009
2.622280e-009
8.431337e-010
-1.215199e-009
-1.861018e-009
-6.742281e-010
9.974103e-010
1.400056e-009
2.080230e-010
-1.169549e-009
2.118620e-008
1.466545e-008
5.929079e-009
1.313323e-010
-5.957371e-010
1.734746e-009
2.956817e-009
-6.459478e-010
-1.183707e-008
-3.435121e-008
-7.524441e-008
-1.456936e-007
-2.602405e-007
-4.359046e-007
-6.917427e-007
-1.047264e-006
-1.517248e-006
-2.102377e-006
-2.778407e-006
-3.488504e-006
-4.142417e-006
-4.623316e-006
-4.800711e-006
-4.546915e-006
-3.754421e-006
-2.351149e-006
-3.101416e-007
2.348817e-006
5.565483e-006
9.250303e-006
1.329649e-005
1.759065e-005
2.202166e-005
2.648785e-005
3.090190e-005
3.519227e-005
3.930214e-005
4.318797e-005
4.681879e-005
5.017551e-005
5.324869e-005
5.603483e-005
5.853329e-005
6.074487e-005
6.267124e-005
6.431373e-005
6.567134e-005
6.673888e-005
6.750620e-005
6.795802e-005
6.807391e-005
6.782762e-005
6.718599e-005
6.610816e-005
6.454603e-005
6.244691e-005
5.975800e-005
5.643221e-005
5.243648e-005
4.776405e-005
4.245047e-005
3.658900e-005
3.033989e-005
2.392893e-005
1.763366e-005
1.175681e-005
6.588285e-006
2.360869e-006
-7.898269e-007
-2.848446e-006
-3.917498e-006
-4.189751e-006
-3.904521e-006
-3.301214e-006
-2.581802e-006
-1.889314e-006
-1.303900e-006
-8.532334e-007
-5.305985e-007
-3.130382e-007
-1.741511e-007
-9.031660e-008
-4.258155e-008
-1.701449e-008
-4.570663e-009
-1.440411e-011
9.052690e-011
-1.061711e-009
-7.745439e-010
1.637289e-009
4.285200e-009
4.478200e-009
1.517329e-009
-2.325007e-009
-3.858398e-009
-2.074227e-009
9.367760e-010
2.232244e-009
1.031723e-009
-7.130577e-010
1.865912e-008
1.039007e-008
1.413344e-010
-4.729886e-009
-1.805343e-009
4.445436e-009
5.748289e-009
-5.350579e-009
-3.383434e-008
-8.502135e-008
-1.693313e-007
-3.052009e-007
-5.182810e-007
-8.375840e-007
-1.289515e-006
-1.888817e-006
-2.624403e-006
-3.440576e-006
-4.219389e-006
-4.773694e-006
-4.858806e-006
-4.203898e-006
-2.556210e-006
2.733708e-007
4.374490e-006
9.718956e-006
1.616271e-005
2.346672e-005
3.133131e-005
3.943519e-005
4.747025e-005
5.516647e-005
6.230624e-005
6.873035e-005
7.433769e-005
7.907996e-005
8.295325e-005
8.598904e-005
8.824613e-005
8.980272e-005
9.074793e-005
9.117384e-005
9.117076e-005
9.082600e-005
9.022426e-005
8.944770e-005
8.857574e-005
8.768560e-005
8.685281e-005
8.615009e-005
8.564339e-005
8.538515e-005
8.540461e-005
8.569530e-005
8.620107e-005
8.680300e-005
8.730982e-005
8.745488e-005
8.690498e-005
8.528789e-005
8.224227e-005
7.748558e-005
7.088761e-005
6.253275e-005
5.275250e-005
4.211188e-005
3.134129e-005
2.122045e-005
1.243992e-005
5.478218e-006
5.301502e-007
-2.496513e-006
-3.920722e-006
-4.186225e-006
-3.751287e-006
-3.001493e-006
-2.204775e-006
-1.509668e-006
-9.722935e-007
-5.921851e-007
-3.421824e-007
-1.874787e-007
-9.597909e-008
-4.342326e-008
-1.467827e-008
-1.505835e-009
1.547576e-009
-9.134594e-012
-1.066440e-009
6.329093e-010
3.459602e-009
4.143517e-009
1.451110e-009
-2.367692e-009
-3.841941e-009
-1.837987e-009
1.364601e-009
2.573673e-009
1.020034e-009
-1.047801e-009
1.245780e-008
5.646539e-009
-2.325068e-009
-5.129210e-009
-1.569891e-009
2.390597e-009
-3.551547e-009
-2.968700e-008
-8.500702e-008
-1.807727e-007
-3.363674e-007
-5.826061e-007
-9.587892e-007
-1.502234e-006
-2.230040e-006
-3.112545e-006
-4.039695e-006
-4.788137e-006
-5.005432e-006
-4.230603e-006
-1.961009e-006
2.243425e-006
8.645469e-006
1.723940e-005
2.771030e-005
3.945406e-005
5.165304e-005
6.338845e-005
7.376226e-005
8.200223e-005
8.753168e-005
8.999754e-005
8.926324e-005
8.538006e-005
7.855004e-005
6.908759e-005
5.738333e-005
4.387224e-005
2.900669e-005
1.323367e-005
-3.023656e-006
-1.937744e-005
-3.547679e-005
-5.100058e-005
-6.564622e-005
-7.911793e-005
-9.111478e-005
-1.013191e-004
-1.093884e-004
-1.149556e-004
-1.176390e-004
-1.170615e-004
-1.128808e-004
-1.048327e-004
-9.278842e-005
-7.682123e-005
-5.727586e-005
-3.483229e-005
-1.054688e-005
1.415324e-005
3.754796e-005
5.778827e-005
7.314076e-005
8.228035e-005
8.457075e-005
8.025079e-005
7.044881e-005
5.699106e-005
4.204029e-005
2.766108e-005
1.543566e-005
6.242138e-006
2.381266e-007
-2.985120e-006
-4.152116e-006
-4.047698e-006
-3.331409e-006
-2.453848e-006
-1.661578e-006
-1.050165e-006
-6.257856e-007
-3.535823e-007
-1.884637e-007
-9.176813e-008
-3.737454e-008
-1.008924e-008
-2.944543e-010
2.729452e-010
-1.156689e-009
-6.156558e-010
1.513568e-009
2.577450e-009
1.192606e-009
-1.171509e-009
-1.925280e-009
-2.773136e-010
1.905957e-009
2.175376e-009
1.821544e-010
-1.953840e-009
9.359958e-009
6.037321e-009
1.981348e-009
-3.361618e-010
-1.933925e-009
-8.966820e-009
-3.194738e-008
-8.424426e-008
-1.825497e-007
-3.504266e-007
-6.227238e-007
-1.045698e-006
-1.666623e-006
-2.507410e-006
-3.519105e-006
-4.520150e-006
-5.133630e-006
-4.755330e-006
-2.593517e-006
2.190742e-006
1.025045e-005
2.177867e-005
3.627730e-005
5.245005e-005
6.827334e-005
8.125116e-005
8.878905e-005
8.858616e-005
7.895390e-005
5.899741e-005
2.863775e-005
-1.149956e-005
-6.027148e-005
-1.162163e-004
-1.777216e-004
-2.431481e-004
-3.109153e-004
-3.795590e-004
-4.477693e-004
-5.144128e-004
-5.785405e-004
-6.393787e-004
-6.962995e-004
-7.487781e-004
-7.963450e-004
-8.385413e-004
-8.748761e-004
-9.047885e-004
-9.276194e-004
-9.425988e-004
-9.488491e-004
-9.454015e-004
-9.312303e-004
-9.053149e-004
-8.667380e-004
-8.148254e-004
-7.493322e-004
-6.706742e-004
-5.801880e-004
-4.803689e-004
-3.750060e-004
-2.691192e-004
-1.686124e-004
-7.960704e-005
-7.503985e-006
4.405618e-005
7.404209e-005
8.434060e-005
7.930222e-005
6.463693e-005
4.607005e-005
2.819158e-005
1.382472e-005
4.016153e-006
-1.534609e-006
-3.866515e-006
-4.196275e-006
-3.548869e-006
-2.609512e-006
-1.740975e-006
-1.077764e-006
-6.271840e-007
-3.443790e-007
-1.763141e-007
-8.109696e-008
-3.120570e-008
-9.079948e-009
-2.200368e-009
-1.286850e-009
-9.167880e-010
2.588310e-010
1.231003e-009
1.154442e-009
5.465009e-010
4.912229e-010
1.208352e-009
1.739844e-009
1.054725e-009
-7.076687e-010
-2.222912e-009
7.949205e-009
8.991420e-009
9.128921e-009
5.248311e-009
-6.625396e-009
-3.261450e-008
-8.370774e-008
-1.788744e-007
-3.478185e-007
-6.329190e-007
-1.088256e-006
-1.769392e-006
-2.702688e-006
-3.821843e-006
-4.868532e-006
-5.279120e-006
-4.116790e-006
-1.371901e-007
7.934762e-006
2.090537e-005
3.847889e-005
5.867799e-005
7.754921e-005
8.938124e-005
8.751101e-005
6.551619e-005
1.846903e-005
-5.612198e-005
-1.579706e-004
-2.842858e-004
-4.304460e-004
-5.908113e-004
-7.594718e-004
-9.308150e-004
-1.099889e-003
-1.262592e-003
-1.415743e-003
-1.557077e-003
-1.685179e-003
-1.799379e-003
-1.899611e-003
-1.986264e-003
-2.060023e-003
-2.121734e-003
-2.172297e-003
-2.212596e-003
-2.243447e-003
-2.265565e-003
-2.279523e-003
-2.285712e-003
-2.284281e-003
-2.275038e-003
-2.257308e-003
-2.229769e-003
-2.190280e-003
-2.135759e-003
-2.062174e-003
-1.964786e-003
-1.838786e-003
-1.680409e-003
-1.488476e-003
-1.266065e-003
-1.021681e-003
-7.692171e-004
-5.262667e-004
-3.109728e-004
-1.382540e-004
-1.644964e-005
5.457045e-005
8.286585e-005
8.137751e-005
6.388745e-005
4.172752e-005
2.209957e-005
8.141471e-006
5.751932e-008
-3.491223e-006
-4.242276e-006
-3.652924e-006
-2.663171e-006
-1.743709e-006
-1.054342e-006
-5.968276e-007
-3.170136e-007
-1.564271e-007
-7.004093e-008
-2.738312e-008
-8.745744e-009
-1.877659e-009
1.148167e-010
5.296848e-010
7.205500e-010
1.148297e-009
1.713348e-009
1.941411e-009
1.463891e-009
4.694229e-010
-4.353449e-010
-8.412827e-010
-8.788329e-010
2.633761e-009
7.772246e-009
1.136857e-008
4.298412e-009
-2.121965e-008
-7.300583e-008
-1.657054e-007
-3.287541e-007
-6.106174e-007
-1.076183e-006