# vtk DataFile Version 3.0
vtk output
ASCII
DATASET STRUCTURED_POINTS
DIMENSIONS 100 100 1
SPACING 1 1 1
ORIGIN 0 0 0
POINT_DATA 10000
SCALARS SFBox_profile double
LOOKUP_TABLE default 
0.000000e+000
0.000000e+000
0.000000e+000
0.000000e+000
0.000000e+000
0.000000e+000
0.000000e+000
0.000000e+000
0.000000e+000
0.000000e+000
0.000000e+000
0.000000e+000
0.000000e+000
0.000000e+000
0.000000e+000
0.000000e+000
0.000000e+000
0.000000e+000
0.000000e+000
0.000000e+000
0.000000e+000
0.000000e+000
0.000000e+000
0.000000e+000
0.000000e+000
0.000000e+000
0.000000e+000
0.000000e+000
0.000000e+000
0.000000e+000
0.000000e+000
0.000000e+000
0.000000e+000
0.000000e+000
0.000000e+000
0.000000e+000
0.000000e+000
0.000000e+000
0.000000e+000
0.000000e+000
0.000000e+000
0.000000e+000
0.000000e+000
0.000000e+000
0.000000e+000
0.000000e+000
0.000000e+000
0.000000e+000
0.000000e+000
0.000000e+000
0.000000e+000
0.000000e+000
0.000000e+000
0.000000e+000
0.000000e+000
0.000000e+000
0.000000e+000
0.000000e+000
0.000000e+000
0.000000e+000
0.000000e+000
0.000000e+000
0.000000e+000
0.000000e+000
0.000000e+000
0.000000e+000
0.000000e+000
0.000000e+000
0.000000e+000
0.000000e+000
0.000000e+000
0.000000e+000
0.000000e+000
0.000000e+000
0.000000e+000
0.000000e+000
0.000000e+000
0.000000e+000
0.000000e+000
0.000000e+000
0.000000e+000
0.000000e+000
0.000000e+000
0.000000e+000
0.000000e+000
0.000000e+000
0.000000e+000
0.000000e+000
0.000000e+000
0.000000e+000
0.000000e+000
0.000000e+000
0.000000e+000
0.000000e+000
0.000000e+000
0.000000e+000
0.000000e+000
0.000000e+000
0.000000e+000
0.000000e+000
-8.552140e-009
-2.443838e-009
5.097765e-009
8.662710e-009
5.973725e-009
-6.970581e-010
-6.462594e-009
-7.512427e-009
-3.713875e-009
1.755534e-009
5.189687e-009
5.102999e-009
2.751912e-009
3.616624e-010
-9.874018e-010
-1.819527e-009
-2.948573e-009
-4.087905e-009
-3.989919e-009
-1.905959e-009
1.342747e-009
3.936303e-009
4.671760e-009
3.889311e-009
2.804060e-009
2.119753e-009
1.484693e-009
2.426744e-010
-1.569564e-009
-3.174489e-009
-3.908062e-009
-3.881192e-009
-3.706414e-009
-3.729203e-009
-3.719236e-009
-3.298179e-009
-2.472293e-009
-1.617023e-009
-1.021899e-009
-6.112143e-010
-1.379992e-010
4.699834e-010
1.050195e-009
1.437555e-009
1.648524e-009
1.815399e-009
2.012494e-009
2.198608e-009
2.297391e-009
2.280757e-009
2.177680e-009
2.041333e-009
1.911891e-009
1.777800e-009
1.566958e-009
1.214686e-009
7.592238e-010
3.266001e-010
-2.316201e-011
-4.003353e-010
-9.590894e-010
-1.661767e-009
-2.260016e-009
-2.574704e-009
-2.726549e-009
-2.966083e-009
-3.272157e-009
-3.263438e-009
-2.618638e-009
-1.508527e-009
-4.455461e-010
3.165020e-010
1.057008e-009
2.112747e-009
3.213808e-009
3.539359e-009
2.561295e-009
7.128219e-010
-9.630144e-010
-1.821169e-009
-2.091999e-009
-2.273102e-009
-2.239299e-009
-1.277159e-009
8.652396e-010
3.155445e-009
3.839630e-009
2.047025e-009
-1.163847e-009
-3.488689e-009
-3.263771e-009
-8.339727e-010
1.812905e-009
2.737540e-009
1.537834e-009
-5.482942e-010
-1.812966e-009
-1.425245e-009
7.549843e-011
1.353328e-009
8.714696e-011
2.905048e-011
-4.635947e-011
-1.219584e-010
-2.042433e-010
-2.379319e-010
-7.784227e-011
3.557777e-010
8.561119e-010
9.461786e-010
2.656844e-010
-9.687142e-010
-1.941553e-009
-1.827034e-009
-5.243612e-010
1.176241e-009
2.220843e-009
2.142693e-009
1.320554e-009
4.414736e-010
-2.038342e-010
-8.360943e-010
-1.671255e-009
-2.458367e-009
-2.651992e-009
-2.008577e-009
-8.819516e-010
1.336769e-010
7.810881e-010
1.271972e-009
1.878923e-009
2.533409e-009
2.908300e-009
2.828388e-009
2.472299e-009
2.142106e-009
1.926738e-009
1.671545e-009
1.239970e-009
7.044182e-010
2.486792e-010
-4.986322e-011
-2.757086e-010
-5.349122e-010
-8.248151e-010
-1.060725e-009
-1.188051e-009
-1.231781e-009
-1.250647e-009
-1.274656e-009
-1.287468e-009
-1.247472e-009
-1.123397e-009
-9.276870e-010
-7.164702e-010
-5.333623e-010
-3.462412e-010
-7.028600e-011
3.209865e-010
7.337402e-010
1.049364e-009
1.276270e-009
1.543897e-009
1.910865e-009
2.230847e-009
2.284924e-009
2.040268e-009
1.690282e-009
1.392481e-009
1.039595e-009
3.981722e-010
-5.249822e-010
-1.366010e-009
-1.732387e-009
-1.596997e-009
-1.264941e-009
-9.530999e-010
-5.309209e-010
2.207962e-010
1.151548e-009
1.700664e-009
1.408490e-009
4.268383e-010
-5.648148e-010
-9.668697e-010
-7.432124e-010
-3.083314e-010
-2.722768e-011
8.584947e-011
2.021128e-010
3.480262e-010
3.503228e-010
9.722695e-011
-2.493868e-010
-3.834033e-010
-1.866381e-010
1.296614e-010
2.486421e-010
8.818423e-011
-1.247454e-010
8.689313e-009
2.446601e-009
-5.200813e-009
-8.753136e-009
-6.030143e-009
5.815408e-010
6.292152e-009
7.537293e-009
4.218072e-009
-8.930209e-010
-4.635142e-009
-5.576748e-009
-4.262564e-009
-1.967790e-009
4.928876e-010
2.857532e-009
4.767449e-009
5.464056e-009
4.314186e-009
1.548916e-009
-1.691265e-009
-4.129166e-009
-5.175843e-009
-5.051163e-009
-4.251592e-009
-3.044136e-009
-1.461605e-009
3.876339e-010
2.179997e-009
3.567495e-009
4.420741e-009
4.832531e-009
4.929154e-009
4.746571e-009
4.284331e-009
3.605855e-009
2.832471e-009
2.055121e-009
1.292879e-009
5.413743e-010
-1.712723e-010
-7.961325e-010
-1.313571e-009
-1.746085e-009
-2.119467e-009
-2.427959e-009
-2.646574e-009
-2.768720e-009
-2.818653e-009
-2.824594e-009
-2.787151e-009
-2.681394e-009
-2.489733e-009
-2.225466e-009
-1.916831e-009
-1.569813e-009
-1.158027e-009
-6.571935e-010
-8.211680e-011
5.245738e-010
1.139011e-009
1.771269e-009
2.420951e-009
3.031759e-009
3.512690e-009
3.799950e-009
3.869507e-009
3.681778e-009
3.153508e-009
2.229938e-009
9.820680e-010
-4.055217e-010
-1.747587e-009
-2.908070e-009
-3.705851e-009
-3.837753e-009
-3.028528e-009
-1.336758e-009
7.246071e-010
2.452148e-009
3.361717e-009
3.328530e-009
2.396600e-009
6.435524e-010
-1.601181e-009
-3.469185e-009
-3.799281e-009
-2.026371e-009
1.034991e-009
3.451661e-009
3.539945e-009
1.258563e-009
-1.655249e-009
-3.034845e-009
-2.007664e-009
3.696334e-010
2.072337e-009
1.806076e-009
9.934478e-012
-1.619446e-009
8.654558e-009
2.351273e-009
-5.271669e-009
-8.577703e-009
-5.467490e-009
1.293122e-009
6.481749e-009
6.543164e-009
2.120162e-009
-2.919257e-009
-4.906206e-009
-3.198623e-009
-9.961471e-011
1.684632e-009
1.430993e-009
4.723432e-010
2.923110e-010
8.864754e-010
1.059728e-009
6.678281e-011
-1.399580e-009
-1.955759e-009
-1.054386e-009
4.688487e-010
1.353638e-009
1.191342e-009
6.162005e-010
3.806498e-010
5.135137e-010
4.719499e-010
-7.401429e-011
-8.427132e-010
-1.324645e-009
-1.368772e-009
-1.257890e-009
-1.284412e-009
-1.417551e-009
-1.427516e-009
-1.218974e-009
-9.308768e-010
-7.343606e-010
-6.379388e-010
-5.312993e-010
-3.570630e-010
-1.708718e-010
-4.645926e-011
1.485433e-011
5.892502e-011
1.046012e-010
1.318324e-010
1.264419e-010
9.727761e-011
4.697626e-011
-3.916545e-011
-1.591553e-010
-2.780685e-010
-3.750434e-010
-4.876489e-010
-6.660574e-010
-8.816975e-010
-1.032177e-009
-1.068114e-009
-1.072123e-009
-1.146703e-009
-1.234450e-009
-1.138019e-009
-7.690050e-010
-3.095652e-010
-2.401095e-011
7.883411e-011
2.647789e-010
6.780208e-010
1.026888e-009
8.418188e-010
7.891859e-011
-6.937624e-010
-8.590481e-010
-4.382094e-010
-3.097875e-011
-2.744214e-011
-8.252113e-011
3.991325e-010
1.297443e-009
1.602249e-009
4.669771e-010
-1.601307e-009
-2.881661e-009
-2.008097e-009
5.700409e-010
2.808132e-009
2.859908e-009
7.319415e-010
-1.764272e-009
-2.644729e-009
-1.404446e-009
7.321876e-010
1.991260e-009
1.499891e-009
-1.592221e-010
-1.553431e-009
4.907079e-011
-1.103990e-010
-2.067206e-010
3.437483e-011
6.250782e-010
1.073005e-009
6.253378e-010
-9.495193e-010
-2.725224e-009
-3.016308e-009
-8.304420e-010
2.863212e-009
5.485412e-009
4.850105e-009
1.101585e-009
-3.307579e-009
-5.669939e-009
-5.154639e-009
-3.018598e-009
-9.369450e-010
6.025461e-010
2.200764e-009
4.173527e-009
5.730119e-009
5.701157e-009
3.872007e-009
1.289125e-009
-7.925186e-010
-2.044804e-009
-3.027971e-009
-4.208485e-009
-5.314839e-009
-5.729541e-009
-5.286184e-009
-4.448802e-009
-3.741218e-009
-3.212852e-009
-2.558286e-009
-1.622071e-009
-6.094341e-010
1.913499e-010
7.390856e-010
1.211347e-009
1.730363e-009
2.229901e-009
2.585797e-009
2.779173e-009
2.884975e-009
2.956557e-009
2.983992e-009
2.944553e-009
2.832644e-009
2.636161e-009
2.338163e-009
1.963694e-009
1.576023e-009
1.185106e-009
6.993626e-010
3.646065e-011
-7.293569e-010
-1.416416e-009
-1.964936e-009
-2.530967e-009
-3.255242e-009
-3.977655e-009
-4.321518e-009
-4.111002e-009
-3.580762e-009
-3.039518e-009
-2.392349e-009
-1.211312e-009
6.265484e-010
2.531211e-009
3.639063e-009
3.650169e-009
3.029209e-009
2.294237e-009
1.321650e-009
-3.525527e-010
-2.540501e-009
-4.043733e-009
-3.614520e-009
-1.301960e-009
1.364686e-009
2.675245e-009
2.185409e-009
8.417263e-010
-1.786975e-010
-5.337693e-010
-6.298320e-010
-7.741744e-010
-7.424348e-010
-2.281766e-010
5.405660e-010
9.049998e-010
5.156570e-010
-2.164975e-010
-5.491959e-010
-2.346723e-010
2.320122e-010
-8.622740e-009
-2.353015e-009
5.151919e-009
8.411829e-009
5.627127e-009
-5.127872e-010
-5.513802e-009
-6.563908e-009
-3.965826e-009
4.144350e-011
3.335169e-009
4.918996e-009
4.620017e-009
2.588266e-009
-5.911725e-010
-3.630378e-009
-5.002837e-009
-4.049263e-009
-1.579240e-009
8.236336e-010
2.143948e-009
2.520045e-009
2.574915e-009
2.458138e-009
1.783312e-009
4.056721e-010
-1.090967e-009
-1.890446e-009
-1.800022e-009
-1.380792e-009
-1.217354e-009
-1.268264e-009
-1.066000e-009
-4.163752e-010
3.310391e-010
7.298596e-010
7.605229e-010
7.734377e-010
1.002559e-009
1.309777e-009
1.431105e-009
1.330111e-009
1.203851e-009
1.204931e-009
1.280940e-009
1.297592e-009
1.221972e-009
1.129074e-009
1.083306e-009
1.082720e-009
1.100961e-009
1.119323e-009
1.113552e-009
1.067623e-009
1.020840e-009
1.045769e-009
1.138124e-009
1.176962e-009
1.064621e-009
8.821459e-010
8.079613e-010
8.564669e-010
7.996431e-010
4.415760e-010
-8.881403e-011
-4.594190e-010
-5.644385e-010
-6.790912e-010
-1.066525e-009
-1.524186e-009
-1.520252e-009
-8.216515e-010
1.836970e-010
9.216739e-010
1.274473e-009
1.570617e-009
1.924065e-009
1.843975e-009
7.469050e-010
-1.182216e-009
-2.871949e-009
-3.230869e-009
-2.067074e-009
-1.110346e-010
1.705166e-009
2.791104e-009
2.830969e-009
1.624473e-009
-6.030635e-010
-2.783663e-009
-3.380332e-009
-1.659404e-009
1.314121e-009
3.242214e-009
2.524885e-009
-1.993970e-010
-2.510333e-009
-2.383386e-009
-6.607327e-011
2.164388e-009
-9.017783e-009
-2.077646e-009
5.883727e-009
8.582768e-009
4.440820e-009
-2.537594e-009
-6.528038e-009
-4.817862e-009
3.401047e-010
4.241259e-009
3.983407e-009
5.610264e-010
-2.711079e-009
-3.428116e-009
-1.781320e-009
4.503100e-010
1.940571e-009
2.625468e-009
2.884443e-009
2.579671e-009
1.232911e-009
-1.073936e-009
-3.399626e-009
-4.685132e-009
-4.620411e-009
-3.651369e-009
-2.293577e-009
-6.954584e-010
1.123825e-009
2.892078e-009
4.176659e-009
4.804518e-009
4.991911e-009
5.007098e-009
4.844524e-009
4.334191e-009
3.482225e-009
2.547200e-009
1.764935e-009
1.117697e-009
4.427873e-010
-3.050208e-010
-9.942246e-010
-1.497384e-009
-1.836224e-009
-2.117630e-009
-2.389197e-009
-2.608424e-009
-2.721966e-009
-2.721318e-009
-2.628419e-009
-2.472537e-009
-2.284344e-009
-2.070266e-009
-1.781797e-009
-1.354894e-009
-8.056071e-010
-2.422753e-010
2.658169e-010
7.983365e-010
1.485265e-009
2.295646e-009
3.011909e-009
3.464129e-009
3.715404e-009
3.915659e-009
4.002431e-009
3.683697e-009
2.775622e-009
1.458358e-009
9.698969e-011
-1.122712e-009
-2.225444e-009
-3.111532e-009
-3.390457e-009
-2.721752e-009
-1.272350e-009
3.268589e-010
1.498061e-009
2.053364e-009
1.997346e-009
1.252629e-009
-1.209969e-010
-1.479171e-009
-1.775407e-009
-5.602768e-010
1.243378e-009
1.930965e-009
6.675828e-010
-1.491483e-009
-2.462265e-009
-1.162781e-009
1.334465e-009
2.752749e-009
1.760667e-009
-7.719796e-010
-2.586523e-009
-2.096334e-009
2.184695e-010
2.285066e-009
-1.039793e-009
3.050822e-010
1.461496e-009
9.388251e-010
-1.152800e-009
-2.884001e-009
-2.095327e-009
1.380375e-009
4.986753e-009
5.316828e-009
1.237008e-009
-4.661381e-009
-7.955539e-009
-6.109840e-009
-5.706633e-010
4.700229e-009
6.683599e-009
5.367227e-009
2.773579e-009
5.378662e-010
-1.236705e-009
-3.049704e-009
-4.653636e-009
-5.071191e-009
-3.785831e-009
-1.469210e-009
6.425541e-010
1.882731e-009
2.476900e-009
2.892691e-009
3.190925e-009
3.110376e-009
2.563327e-009
1.804223e-009
1.126528e-009
5.765294e-010
3.671672e-011
-5.253167e-010
-1.007954e-009
-1.337713e-009
-1.568166e-009
-1.789191e-009
-2.006030e-009
-2.156026e-009
-2.212141e-009
-2.220253e-009
-2.238070e-009
-2.273070e-009
-2.289862e-009
-2.258597e-009
-2.186531e-009
-2.111166e-009
-2.064289e-009
-2.033891e-009
-1.966560e-009
-1.825317e-009
-1.641107e-009
-1.477115e-009
-1.333968e-009
-1.127952e-009
-7.932959e-010
-3.737029e-010
4.036527e-011
4.487123e-010
9.378093e-010
1.515007e-009
2.022867e-009
2.287149e-009
2.294002e-009
2.111341e-009
1.656027e-009
7.103152e-010
-7.211108e-010
-2.178079e-009
-3.047950e-009
-3.099593e-009
-2.550070e-009
-1.572879e-009
-9.409411e-012
2.139804e-009
4.028089e-009
4.231857e-009
2.092506e-009
-1.262607e-009
-3.585201e-009
-3.421284e-009
-1.340461e-009
7.843064e-010
1.591730e-009
1.206108e-009
5.761423e-010
2.508216e-010
3.849258e-011
-3.391703e-010
-6.895443e-010
-6.208883e-010
-1.474145e-010
2.728315e-010
3.122226e-010
1.507457e-010
7.574917e-009
2.167244e-009
-4.210654e-009
-6.953222e-009
-4.831518e-009
-1.926962e-010
3.654751e-009
4.937821e-009
3.789414e-009
1.147736e-009
-1.975031e-009
-4.323062e-009
-4.457737e-009
-1.844407e-009
2.072541e-009
4.506156e-009
3.619223e-009
2.561913e-010
-2.829017e-009
-3.532028e-009
-2.064002e-009
-1.413066e-010
1.062111e-009
1.788730e-009
2.699940e-009
3.600538e-009
3.554384e-009
2.096587e-009
-1.057848e-010
-1.940499e-009
-2.944394e-009
-3.496913e-009
-4.069769e-009
-4.601263e-009
-4.697132e-009
-4.222907e-009
-3.473927e-009
-2.799196e-009
-2.248365e-009
-1.655673e-009
-9.483437e-010
-2.474162e-010
3.078115e-010
7.218829e-010
1.090693e-009
1.450697e-009
1.742376e-009
1.908266e-009
1.970639e-009
1.990287e-009
1.978924e-009
1.888963e-009
1.688351e-009
1.411112e-009
1.110105e-009
7.781470e-010
3.564017e-010
-1.709866e-010
-7.332397e-010
-1.260788e-009
-1.785103e-009
-2.380151e-009
-2.996098e-009
-3.434508e-009
-3.552340e-009
-3.427779e-009
-3.209290e-009
-2.816438e-009
-1.959706e-009
-5.677002e-010
9.198565e-010
1.881760e-009
2.138094e-009
2.042212e-009
1.865143e-009
1.323596e-009
3.234800e-011
-1.606769e-009
-2.369444e-009
-1.388528e-009
7.227064e-010
2.246452e-009
1.976306e-009
3.067298e-010
-1.351002e-009
-1.996149e-009
-1.646980e-009
-7.382802e-010
5.188709e-010
1.873775e-009
2.510891e-009
1.498580e-009
-9.326719e-010
-2.953390e-009
-2.606802e-009
6.307075e-011
2.672837e-009
2.701255e-009
1.008819e-010
-2.523397e-009
9.164786e-009
1.558541e-009
-6.554308e-009
-8.246674e-009
-2.872457e-009
4.009989e-009
6.270258e-009
2.682373e-009
-2.726248e-009
-5.054838e-009
-2.887024e-009
1.314979e-009
4.228674e-009
4.452286e-009
2.622793e-009
-1.477967e-010
-3.130528e-009
-5.501905e-009
-6.002363e-009
-3.828696e-009
2.139749e-010
3.999335e-009
5.795853e-009
5.549086e-009
4.365767e-009
3.027370e-009
1.392020e-009
-8.086038e-010
-3.091529e-009
-4.508810e-009
-4.668806e-009
-4.112929e-009
-3.601780e-009
-3.284484e-009
-2.756073e-009
-1.773726e-009
-6.294658e-010
2.271492e-010
7.168425e-010
1.124954e-009
1.665836e-009
2.236323e-009
2.620522e-009
2.791631e-009
2.909051e-009
3.080323e-009
3.244414e-009
3.301570e-009
3.264622e-009
3.221250e-009
3.194973e-009
3.123237e-009
2.972020e-009
2.796380e-009
2.646866e-009
2.469909e-009
2.174058e-009
1.778525e-009
1.405156e-009
1.087939e-009
6.756617e-010
1.891921e-011
-7.848868e-010
-1.465336e-009
-1.928422e-009
-2.388800e-009
-3.019618e-009
-3.552322e-009
-3.440291e-009
-2.479773e-009
-1.084611e-009
2.066258e-010
1.349246e-009
2.634708e-009
3.903529e-009
4.266841e-009
2.937422e-009
2.749685e-010
-2.292250e-009
-3.481821e-009
-3.120133e-009
-1.859353e-009
-2.901342e-010
1.282549e-009
2.337157e-009
2.077312e-009
3.587648e-010
-1.560662e-009
-1.866397e-009
-1.297343e-010
1.889336e-009
1.884750e-009
-4.341857e-010
-2.755046e-009
-2.467083e-009
4.731972e-010
3.262362e-009
3.027545e-009
-1.717946e-010
-3.284338e-009
3.140168e-009
-6.843049e-010
-3.974268e-009
-2.852701e-009
1.996974e-009
5.778535e-009
4.235008e-009
-1.960393e-009
-7.473818e-009
-7.182673e-009
-9.941009e-010
6.077918e-009
8.548092e-009
5.157154e-009
-7.438878e-010
-4.839247e-009
-5.406299e-009
-3.586557e-009
-1.177945e-009
1.000784e-009
2.760864e-009
3.591158e-009
2.831090e-009
6.644428e-010
-1.674395e-009
-2.960730e-009
-3.008246e-009
-2.445426e-009
-1.714343e-009
-6.719328e-010
8.344902e-010
2.410545e-009
3.418357e-009
3.689023e-009
3.642557e-009
3.686627e-009
3.738284e-009
3.462379e-009
2.811465e-009
2.113778e-009
1.653053e-009
1.358909e-009
9.913619e-010
4.990765e-010
5.804547e-011
-1.973441e-010
-3.347216e-010
-4.817415e-010
-6.352183e-010
-6.976175e-010
-6.460125e-010
-5.571607e-010
-4.652374e-010
-2.979613e-010
-4.176607e-012
3.347245e-010
6.123305e-010
8.779560e-010
1.289586e-009
1.861221e-009
2.375248e-009
2.639131e-009
2.746254e-009
2.926493e-009
3.142462e-009
3.018641e-009
2.285747e-009
1.170880e-009
1.635575e-010
-5.566513e-010
-1.218777e-009
-1.910825e-009
-2.181819e-009
-1.476435e-009
7.474458e-011
1.574560e-009
2.164303e-009
1.715807e-009
6.224638e-010
-7.950335e-010
-2.277074e-009
-3.119551e-009
-2.315887e-009
2.854295e-010
3.146025e-009
3.994916e-009
1.997178e-009
-1.207555e-009
-2.962198e-009
-2.125866e-009
3.116493e-012
1.255968e-009
8.093599e-010
-2.958800e-010
-5.996552e-010
1.753998e-010
1.022910e-009
8.910042e-010
-1.999709e-010
-1.232784e-009
-4.561942e-009
-1.963571e-009
1.467519e-009
3.804704e-009
4.092405e-009
2.372987e-009
-6.730920e-010
-3.688884e-009
-4.749409e-009
-2.575482e-009
1.791964e-009
5.014368e-009
4.106233e-009
-5.043229e-010
-4.906263e-009
-5.186860e-009
-1.074825e-009
3.995091e-009
6.279973e-009
4.864782e-009
1.558357e-009
-1.554624e-009
-3.785388e-009
-5.312275e-009
-5.943369e-009
-5.077841e-009
-2.691570e-009
2.610720e-010
2.653092e-009
4.111993e-009
4.946440e-009
5.399403e-009
5.334525e-009
4.642332e-009
3.604129e-009
2.643641e-009
1.867681e-009
1.068524e-009
1.367974e-010
-7.391230e-010
-1.338763e-009
-1.708686e-009
-2.067723e-009
-2.494441e-009
-2.854795e-009
-3.031856e-009
-3.090014e-009
-3.155027e-009
-3.230274e-009
-3.227755e-009
-3.131787e-009
-3.019698e-009
-2.918190e-009
-2.747550e-009
-2.458080e-009
-2.133828e-009
-1.869232e-009
-1.592686e-009
-1.134377e-009
-4.751661e-010
2.000908e-010
7.640740e-010
1.349578e-009
2.153198e-009
3.082198e-009
3.767070e-009
3.961098e-009
3.760291e-009
3.313861e-009
2.472959e-009
9.763048e-010
-1.014895e-009
-2.813073e-009
-3.760923e-009
-3.726235e-009
-2.903477e-009
-1.362836e-009
7.925656e-010
2.814882e-009
3.396364e-009
1.879633e-009
-6.931803e-010
-2.233237e-009
-1.573265e-009
3.929780e-010
1.719775e-009
1.381548e-009
2.529632e-012
-1.175469e-009
-1.534904e-009
-1.161155e-009
-2.339646e-010
1.034996e-009
1.948829e-009
1.538809e-009
-2.790409e-010
-2.064784e-009
-2.025708e-009
-1.794122e-011
2.023789e-009
-7.863751e-009
-8.902925e-010
6.038325e-009
6.633289e-009
1.253330e-009
-4.294120e-009
-4.999636e-009
-1.088592e-009
3.296296e-009
4.631627e-009
2.639216e-009
-7.902719e-010
-3.830729e-009
-5.378083e-009
-4.532205e-009
-9.100162e-010
4.134294e-009
7.518109e-009
6.706397e-009
2.158453e-009
-2.925884e-009
-5.481900e-009
-4.986541e-009
-3.036001e-009
-1.141729e-009
4.766002e-010
2.121070e-009
3.473558e-009
3.744383e-009
2.705367e-009
1.052016e-009
-3.519679e-010
-1.268592e-009
-1.973822e-009
-2.622894e-009
-3.033609e-009
-3.042027e-009
-2.780418e-009
-2.489643e-009
-2.220371e-009
-1.866525e-009
-1.412077e-009
-9.861854e-010
-6.775869e-010
-4.276312e-010
-1.544316e-010
1.115955e-010
2.868436e-010
3.666503e-010
4.119883e-010
4.321106e-010
3.718746e-010
2.210691e-010
4.779869e-011
-1.143008e-010
-3.352470e-010
-6.777705e-010
-1.071970e-009
-1.393263e-009
-1.641112e-009
-1.925480e-009
-2.251303e-009
-2.433295e-009
-2.304662e-009
-1.917532e-009
-1.412855e-009
-7.590964e-010
1.816174e-010
1.289949e-009
2.094946e-009
2.197431e-009
1.662805e-009
8.029865e-010
-3.110097e-010
-1.758927e-009
-3.109578e-009
-3.275050e-009
-1.515416e-009
1.426276e-009
3.626063e-009
3.666495e-009
1.861208e-009
-3.261032e-010
-1.780205e-009
-2.305246e-009
-1.977688e-009
-7.271359e-010
1.049968e-009
2.045972e-009
1.126533e-009
-1.003369e-009
-1.998915e-009
-4.196767e-010
2.208479e-009
2.718079e-009
-1.921496e-011
-3.355443e-009
-3.526289e-009
3.725644e-011
3.776248e-009
-5.586788e-009
1.207985e-009
6.852244e-009
4.790658e-009
-3.082834e-009
-8.548599e-009
-5.775497e-009
2.732092e-009
8.946635e-009
7.444344e-009
2.289030e-010
-6.114844e-009
-7.008192e-009
-3.209230e-009
1.429851e-009
4.007510e-009
4.032127e-009
2.167007e-009
-8.724039e-010
-3.944379e-009
-5.203952e-009
-3.353807e-009
8.021417e-010
4.713732e-009
6.283070e-009
5.461634e-009
3.592015e-009
1.648668e-009
-4.028649e-010
-2.727482e-009
-4.800720e-009
-5.811795e-009
-5.591210e-009
-4.741608e-009
-3.884026e-009
-3.083373e-009
-2.088656e-009
-8.687696e-010
3.114513e-010
1.243920e-009
1.981743e-009
2.668853e-009
3.322811e-009
3.863076e-009
4.260078e-009
4.559391e-009
4.792841e-009
4.946119e-009
5.009060e-009
4.996082e-009
4.910821e-009
4.740702e-009
4.496691e-009
4.211202e-009
3.880809e-009
3.459628e-009
2.935252e-009
2.358786e-009
1.754765e-009
1.054044e-009
1.933677e-010
-7.507031e-010
-1.630085e-009
-2.421164e-009
-3.210359e-009
-3.916737e-009
-4.174969e-009
-3.668318e-009
-2.519508e-009
-1.148761e-009
2.478053e-010
1.790612e-009
3.328098e-009
4.044371e-009
3.107398e-009
7.746853e-010
-1.508676e-009
-2.366707e-009
-1.683054e-009
-3.624262e-010
8.034044e-010
1.563732e-009
1.629121e-009
4.724692e-010
-1.709060e-009
-3.264157e-009
-2.314721e-009
9.085772e-010
3.601851e-009
3.053899e-009
-2.520465e-010
-2.885872e-009
-2.166896e-009
8.231141e-010
2.494667e-009
9.117915e-010
-1.978254e-009
-2.661184e-009
-1.985800e-010
2.655697e-009
-7.507815e-010
1.910421e-009
3.362291e-009
7.421533e-010
-4.102263e-009
-6.109767e-009
-2.422622e-009
4.022249e-009
6.981911e-009
3.304465e-009
-3.522904e-009
-6.733639e-009
-3.156217e-009
3.692508e-009
7.394648e-009
4.919207e-009
-1.175312e-009
-6.080266e-009
-7.158909e-009
-4.987203e-009
-1.333906e-009
2.539251e-009
5.674479e-009
6.870252e-009
5.376309e-009
1.963171e-009
-1.428898e-009
-3.338093e-009
-3.783156e-009
-3.566278e-009
-3.038512e-009
-1.935380e-009
-1.973083e-010
1.596389e-009
2.786260e-009
3.326485e-009
3.674217e-009
4.127426e-009
4.531753e-009
4.629107e-009
4.452954e-009
4.257740e-009
4.185317e-009
4.151191e-009
4.030105e-009
3.829233e-009
3.647378e-009
3.539501e-009
3.475035e-009
3.403742e-009
3.321743e-009
3.269752e-009
3.279569e-009
3.328718e-009
3.360517e-009
3.360634e-009
3.388853e-009
3.491304e-009
3.594337e-009
3.559586e-009
3.365510e-009
3.140077e-009
2.931196e-009
2.527640e-009
1.671205e-009
4.495401e-010
-7.035959e-010
-1.483265e-009
-2.002254e-009
-2.407247e-009
-2.351409e-009
-1.232093e-009
9.127661e-010
3.036754e-009
3.905105e-009
3.184759e-009
1.492087e-009
-4.649529e-010
-2.304439e-009
-3.477795e-009
-3.057556e-009
-7.457637e-010
2.045552e-009
2.978414e-009
1.180870e-009
-1.501193e-009
-2.261647e-009
-3.673681e-010
2.040806e-009
2.357529e-009
3.300142e-010
-1.877648e-009
-2.183776e-009
-6.493322e-010
9.909801e-010
1.355273e-009
5.998012e-010
-2.094159e-010
-4.167077e-010
-2.632063e-010
3.444475e-009
4.665304e-010
-2.493864e-009
-2.879158e-009
-8.503271e-010
1.548281e-009
2.590002e-009
1.787829e-009
-5.252277e-010
-3.319198e-009
-4.602239e-009
-2.418850e-009
2.783579e-009
7.251017e-009
6.742854e-009
8.842140e-010
-5.836682e-009
-8.063250e-009
-4.494011e-009
1.417022e-009
5.237909e-009
5.309502e-009
2.893222e-009
-1.785421e-010
-2.981446e-009
-5.007705e-009
-5.479308e-009
-3.887427e-009
-8.482557e-010
2.229623e-009
4.388494e-009
5.695527e-009
6.580522e-009
7.041933e-009
6.776820e-009
5.834430e-009
4.733462e-009
3.897354e-009
3.245139e-009
2.463485e-009
1.502511e-009
6.198946e-010
7.281379e-012
-4.335703e-010
-9.033699e-010
-1.425337e-009
-1.844567e-009
-2.050966e-009
-2.102875e-009
-2.116332e-009
-2.100803e-009
-1.960774e-009
-1.646108e-009
-1.240897e-009
-8.627422e-010
-5.004783e-010
-2.286316e-011
6.261511e-010
1.313575e-009
1.883794e-009
2.400953e-009
3.085781e-009
3.961878e-009
4.699460e-009
4.943633e-009
4.709684e-009
4.252123e-009
3.559885e-009
2.270545e-009
2.728630e-010
-1.797454e-009
-2.969953e-009
-2.835415e-009
-1.783249e-009
-3.727481e-010
1.115244e-009
2.287574e-009
2.279161e-009
5.070735e-010
-2.135384e-009
-3.509980e-009
-2.230972e-009
7.272811e-010
2.880162e-009
2.697611e-009
8.725136e-010
-8.245847e-010
-1.385402e-009
-9.946316e-010
-2.128651e-010
5.211414e-010
7.070571e-010
-2.529278e-011
-1.141489e-009
-1.251111e-009
3.220612e-010
2.230549e-009
2.220791e-009
-1.655304e-010
-2.665892e-009
5.829888e-009
-1.510846e-009
-7.326162e-009
-4.814477e-009
3.298840e-009
8.346253e-009
5.385234e-009
-2.166400e-009
-7.102600e-009
-5.870449e-009
-7.953684e-010
3.633537e-009
4.890032e-009
3.058021e-009
-5.617356e-010
-4.072029e-009
-5.067615e-009
-2.037494e-009
3.581664e-009
7.673868e-009
6.832646e-009
1.546765e-009
-4.378285e-009
-7.421089e-009
-6.929122e-009
-4.407044e-009
-1.296941e-009
1.880665e-009
4.743512e-009
6.505809e-009
6.617774e-009
5.474434e-009
4.026792e-009
2.817913e-009
1.723014e-009
5.478755e-010
-5.212229e-010
-1.205289e-009
-1.592468e-009
-2.044500e-009
-2.721656e-009
-3.426658e-009
-3.939886e-009
-4.321039e-009
-4.772939e-009
-5.316882e-009
-5.750943e-009
-5.917487e-009
-5.884978e-009
-5.809479e-009
-5.697863e-009
-5.409502e-009
-4.883413e-009
-4.261423e-009
-3.724132e-009
-3.264800e-009
-2.730657e-009
-2.088989e-009
-1.527894e-009
-1.204840e-009
-9.783337e-010
-5.399139e-010
1.933940e-010
9.879544e-010
1.662560e-009
2.362802e-009
3.260758e-009
4.069020e-009
4.143024e-009
3.151489e-009
1.426623e-009
-4.653643e-010
-2.222826e-009
-3.586214e-009
-3.873497e-009
-2.387277e-009
4.565994e-010
2.878210e-009
3.183721e-009
1.446928e-009
-6.273851e-010
-1.497610e-009
-1.033255e-009
1.046735e-011
1.037948e-009
1.631288e-009
1.128351e-009
-7.365230e-010
-2.684148e-009
-2.516967e-009
2.534921e-010
3.030919e-009
2.634601e-009
-7.235120e-010
-3.171922e-009
-1.671042e-009
2.055280e-009
3.390958e-009
5.349875e-010
-3.117327e-009
6.203680e-009
-2.029299e-009
-8.174595e-009
-4.635252e-009
4.675221e-009
9.171474e-009
3.880614e-009
-5.179480e-009
-8.205025e-009
-2.484881e-009
5.348384e-009
7.222956e-009
1.927003e-009
-4.908569e-009
-7.425893e-009
-4.565814e-009
7.632646e-010
5.272543e-009
7.089318e-009
5.479258e-009
8.779682e-010
-4.451890e-009
-7.159771e-009
-5.374147e-009
-4.642653e-010
4.247283e-009
6.445843e-009
6.199121e-009
4.752057e-009
2.843883e-009
5.605767e-010
-1.788321e-009
-3.463247e-009
-4.044773e-009
-3.913843e-009
-3.756221e-009
-3.846776e-009
-4.050472e-009
-4.334600e-009
-4.941459e-009
-6.033687e-009
-7.430024e-009
-8.829355e-009
-1.015311e-008
-1.150510e-008
-1.285852e-008
-1.396443e-008
-1.460870e-008
-1.482651e-008
-1.476907e-008
-1.443617e-008
-1.367376e-008
-1.243695e-008
-1.092742e-008
-9.395476e-009
-7.889988e-009
-6.325744e-009
-4.771432e-009
-3.513421e-009
-2.760789e-009
-2.404362e-009
-2.196029e-009
-2.086256e-009
-2.185206e-009
-2.379025e-009
-2.223860e-009
-1.388074e-009
-6.089651e-011
1.275908e-009
2.362906e-009
3.145426e-009
3.284313e-009
2.186256e-009
-1.117138e-010
-2.362867e-009
-2.973392e-009
-1.559627e-009
6.906240e-010
2.292512e-009
2.691790e-009
2.062426e-009
5.474779e-010
-1.507419e-009
-2.833370e-009
-1.953465e-009
7.665890e-010
2.623547e-009
1.318423e-009
-1.915552e-009
-3.183373e-009
-5.370464e-010
3.238200e-009
3.645225e-009
-3.552994e-012
-3.521560e-009
-2.881118e-009
8.511926e-010
2.957507e-009
1.071627e-009
-1.955472e-009
3.968513e-009
-8.420242e-010
-4.349824e-009
-2.239960e-009
2.737001e-009
4.101405e-009
-3.158504e-010
-5.307530e-009
-4.243200e-009
2.748385e-009
8.260786e-009
5.795005e-009
-2.756995e-009
-9.029392e-009
-7.143579e-009
5.475286e-010
6.735941e-009
6.720054e-009
1.818822e-009
-3.535682e-009
-6.142346e-009
-5.293589e-009
-1.628653e-009
3.528039e-009
7.976119e-009
9.362597e-009