# vtk DataFile Version 3.0
vtk output
ASCII
DATASET STRUCTURED_POINTS
DIMENSIONS 100 100 1
SPACING 1 1 1
ORIGIN 0 0 0
POINT_DATA 10000
SCALARS SFBox_profile double
LOOKUP_TABLE default 
9.439899e-003
9.439906e-003
9.439916e-003
9.439925e-003
9.439929e-003
9.439927e-003
9.439922e-003
9.439916e-003
9.439914e-003
9.439915e-003
9.439919e-003
9.439922e-003
9.439923e-003
9.439922e-003
9.439922e-003
9.439921e-003
9.439921e-003
9.439921e-003
9.439919e-003
9.439917e-003
9.439916e-003
9.439917e-003
9.439918e-003
9.439920e-003
9.439921e-003
9.439921e-003
9.439922e-003
9.439922e-003
9.439923e-003
9.439923e-003
9.439923e-003
9.439922e-003
9.439921e-003
9.439921e-003
9.439921e-003
9.439921e-003
9.439920e-003
9.439920e-003
9.439920e-003
9.439920e-003
9.439921e-003
9.439921e-003
9.439921e-003
9.439921e-003
9.439921e-003
9.439922e-003
9.439922e-003
9.439922e-003
9.439921e-003
9.439921e-003
9.439921e-003
9.439921e-003
9.439921e-003
9.439920e-003
9.439920e-003
9.439920e-003
9.439920e-003
9.439921e-003
9.439921e-003
9.439921e-003
9.439921e-003
9.439922e-003
9.439923e-003
9.439923e-003
9.439922e-003
9.439922e-003
9.439921e-003
9.439921e-003
9.439920e-003
9.439919e-003
9.439918e-003
9.439918e-003
9.439918e-003
9.439919e-003
9.439920e-003
9.439920e-003
9.439921e-003
9.439922e-003
9.439922e-003
9.439922e-003
9.439920e-003
9.439919e-003
9.439918e-003
9.439918e-003
9.439919e-003
9.439921e-003
9.439921e-003
9.439921e-003
9.439921e-003
9.439920e-003
9.439920e-003
9.439919e-003
9.439919e-003
9.439919e-003
9.439920e-003
9.439921e-003
9.439921e-003
9.439921e-003
9.439920e-003
9.439919e-003
9.439899e-003
9.439906e-003
9.439916e-003
9.439925e-003
9.439929e-003
9.439927e-003
9.439922e-003
9.439916e-003
9.439914e-003
9.439915e-003
9.439919e-003
9.439922e-003
9.439923e-003
9.439922e-003
9.439922e-003
9.439921e-003
9.439921e-003
9.439921e-003
9.439919e-003
9.439917e-003
9.439916e-003
9.439917e-003
9.439918e-003
9.439920e-003
9.439921e-003
9.439921e-003
9.439922e-003
9.439922e-003
9.439923e-003
9.439923e-003
9.439923e-003
9.439922e-003
9.439921e-003
9.439921e-003
9.439921e-003
9.439921e-003
9.439920e-003
9.439920e-003
9.439920e-003
9.439920e-003
9.439921e-003
9.439921e-003
9.439921e-003
9.439921e-003
9.439921e-003
9.439922e-003
9.439922e-003
9.439922e-003
9.439921e-003
9.439921e-003
9.439921e-003
9.439921e-003
9.439921e-003
9.439920e-003
9.439920e-003
9.439920e-003
9.439920e-003
9.439921e-003
9.439921e-003
9.439921e-003
9.439921e-003
9.439922e-003
9.439923e-003
9.439923e-003
9.439922e-003
9.439922e-003
9.439921e-003
9.439921e-003
9.439920e-003
9.439919e-003
9.439918e-003
9.439918e-003
9.439918e-003
9.439919e-003
9.439920e-003
9.439920e-003
9.439921e-003
9.439922e-003
9.439922e-003
9.439922e-003
9.439920e-003
9.439919e-003
9.439918e-003
9.439918e-003
9.439919e-003
9.439921e-003
9.439921e-003
9.439921e-003
9.439921e-003
9.439920e-003
9.439920e-003
9.439919e-003
9.439919e-003
9.439919e-003
9.439920e-003
9.439921e-003
9.439921e-003
9.439921e-003
9.439920e-003
9.439919e-003
9.439917e-003
9.439918e-003
9.439919e-003
9.439921e-003
9.439921e-003
9.439921e-003
9.439920e-003
9.439919e-003
9.439919e-003
9.439920e-003
9.439921e-003
9.439921e-003
9.439921e-003
9.439919e-003
9.439919e-003
9.439919e-003
9.439920e-003
9.439920e-003
9.439921e-003
9.439921e-003
9.439920e-003
9.439920e-003
9.439921e-003
9.439921e-003
9.439921e-003
9.439920e-003
9.439920e-003
9.439920e-003
9.439920e-003
9.439921e-003
9.439921e-003
9.439921e-003
9.439921e-003
9.439922e-003
9.439923e-003
9.439924e-003
9.439924e-003
9.439924e-003
9.439924e-003
9.439925e-003
9.439926e-003
9.439926e-003
9.439926e-003
9.439926e-003
9.439926e-003
9.439926e-003
9.439926e-003
9.439926e-003
9.439926e-003
9.439926e-003
9.439926e-003
9.439925e-003
9.439925e-003
9.439925e-003
9.439924e-003
9.439924e-003
9.439923e-003
9.439923e-003
9.439922e-003
9.439922e-003
9.439921e-003
9.439921e-003
9.439921e-003
9.439920e-003
9.439920e-003
9.439920e-003
9.439920e-003
9.439920e-003
9.439921e-003
9.439920e-003
9.439920e-003
9.439920e-003
9.439921e-003
9.439921e-003
9.439920e-003
9.439920e-003
9.439919e-003
9.439920e-003
9.439920e-003
9.439920e-003
9.439920e-003
9.439920e-003
9.439920e-003
9.439920e-003
9.439920e-003
9.439920e-003
9.439920e-003
9.439920e-003
9.439920e-003
9.439920e-003
9.439920e-003
9.439920e-003
9.439920e-003
9.439920e-003
9.439920e-003
9.439920e-003
9.439920e-003
9.439920e-003
9.439920e-003
9.439920e-003
9.439939e-003
9.439932e-003
9.439923e-003
9.439915e-003
9.439912e-003
9.439914e-003
9.439919e-003
9.439923e-003
9.439925e-003
9.439924e-003
9.439922e-003
9.439919e-003
9.439918e-003
9.439917e-003
9.439917e-003
9.439917e-003
9.439918e-003
9.439920e-003
9.439922e-003
9.439923e-003
9.439924e-003
9.439923e-003
9.439922e-003
9.439921e-003
9.439920e-003
9.439919e-003
9.439919e-003
9.439918e-003
9.439919e-003
9.439919e-003
9.439920e-003
9.439922e-003
9.439923e-003
9.439924e-003
9.439926e-003
9.439927e-003
9.439928e-003
9.439929e-003
9.439929e-003
9.439930e-003
9.439930e-003
9.439931e-003
9.439931e-003
9.439931e-003
9.439931e-003
9.439931e-003
9.439931e-003
9.439931e-003
9.439931e-003
9.439931e-003
9.439930e-003
9.439930e-003
9.439930e-003
9.439929e-003
9.439929e-003
9.439928e-003
9.439927e-003
9.439926e-003
9.439925e-003
9.439923e-003
9.439922e-003
9.439921e-003
9.439920e-003
9.439919e-003
9.439919e-003
9.439919e-003
9.439919e-003
9.439920e-003
9.439921e-003
9.439921e-003
9.439922e-003
9.439922e-003
9.439922e-003
9.439922e-003
9.439921e-003
9.439919e-003
9.439918e-003
9.439918e-003
9.439918e-003
9.439919e-003
9.439920e-003
9.439921e-003
9.439922e-003
9.439922e-003
9.439921e-003
9.439920e-003
9.439919e-003
9.439919e-003
9.439919e-003
9.439920e-003
9.439921e-003
9.439921e-003
9.439921e-003
9.439920e-003
9.439920e-003
9.439919e-003
9.439919e-003
9.439920e-003
9.439920e-003
9.439921e-003
9.439944e-003
9.439936e-003
9.439924e-003
9.439914e-003
9.439910e-003
9.439913e-003
9.439919e-003
9.439925e-003
9.439926e-003
9.439924e-003
9.439920e-003
9.439918e-003
9.439917e-003
9.439918e-003
9.439919e-003
9.439919e-003
9.439919e-003
9.439919e-003
9.439921e-003
9.439922e-003
9.439923e-003
9.439922e-003
9.439921e-003
9.439920e-003
9.439920e-003
9.439921e-003
9.439921e-003
9.439922e-003
9.439922e-003
9.439923e-003
9.439924e-003
9.439926e-003
9.439927e-003
9.439928e-003
9.439929e-003
9.439930e-003
9.439931e-003
9.439932e-003
9.439933e-003
9.439933e-003
9.439934e-003
9.439934e-003
9.439935e-003
9.439935e-003
9.439935e-003
9.439935e-003
9.439935e-003
9.439935e-003
9.439935e-003
9.439934e-003
9.439934e-003
9.439934e-003
9.439933e-003
9.439932e-003
9.439932e-003
9.439931e-003
9.439930e-003
9.439929e-003
9.439928e-003
9.439927e-003
9.439926e-003
9.439924e-003
9.439923e-003
9.439922e-003
9.439922e-003
9.439921e-003
9.439921e-003
9.439921e-003
9.439921e-003
9.439921e-003
9.439921e-003
9.439922e-003
9.439921e-003
9.439921e-003
9.439921e-003
9.439920e-003
9.439919e-003
9.439919e-003
9.439918e-003
9.439919e-003
9.439919e-003
9.439921e-003
9.439922e-003
9.439922e-003
9.439921e-003
9.439920e-003
9.439919e-003
9.439919e-003
9.439919e-003
9.439920e-003
9.439920e-003
9.439921e-003
9.439921e-003
9.439921e-003
9.439920e-003
9.439919e-003
9.439919e-003
9.439919e-003
9.439920e-003
9.439921e-003
9.439929e-003
9.439926e-003
9.439921e-003
9.439918e-003
9.439916e-003
9.439918e-003
9.439921e-003
9.439923e-003
9.439922e-003
9.439920e-003
9.439918e-003
9.439917e-003
9.439919e-003
9.439922e-003
9.439923e-003
9.439923e-003
9.439921e-003
9.439919e-003
9.439919e-003
9.439919e-003
9.439920e-003
9.439920e-003
9.439920e-003
9.439920e-003
9.439922e-003
9.439924e-003
9.439927e-003
9.439928e-003
9.439929e-003
9.439929e-003
9.439931e-003
9.439932e-003
9.439933e-003
9.439933e-003
9.439934e-003
9.439934e-003
9.439935e-003
9.439936e-003
9.439937e-003
9.439938e-003
9.439938e-003
9.439939e-003
9.439939e-003
9.439940e-003
9.439940e-003
9.439940e-003
9.439940e-003
9.439940e-003
9.439939e-003
9.439939e-003
9.439938e-003
9.439938e-003
9.439937e-003
9.439937e-003
9.439936e-003
9.439935e-003
9.439934e-003
9.439933e-003
9.439933e-003
9.439932e-003
9.439931e-003
9.439930e-003
9.439929e-003
9.439928e-003
9.439927e-003
9.439926e-003
9.439924e-003
9.439923e-003
9.439921e-003
9.439920e-003
9.439920e-003
9.439919e-003
9.439919e-003
9.439919e-003
9.439920e-003
9.439921e-003
9.439921e-003
9.439921e-003
9.439920e-003
9.439920e-003
9.439919e-003
9.439920e-003
9.439920e-003
9.439920e-003
9.439920e-003
9.439920e-003
9.439920e-003
9.439920e-003
9.439920e-003
9.439920e-003
9.439920e-003
9.439920e-003
9.439920e-003
9.439921e-003
9.439921e-003
9.439920e-003
9.439919e-003
9.439919e-003
9.439920e-003
9.439921e-003
9.439906e-003
9.439911e-003
9.439918e-003
9.439923e-003
9.439926e-003
9.439924e-003
9.439922e-003
9.439919e-003
9.439917e-003
9.439916e-003
9.439917e-003
9.439918e-003
9.439921e-003
9.439924e-003
9.439925e-003
9.439924e-003
9.439922e-003
9.439919e-003
9.439918e-003
9.439918e-003
9.439919e-003
9.439920e-003
9.439921e-003
9.439923e-003
9.439925e-003
9.439928e-003
9.439931e-003
9.439933e-003
9.439934e-003
9.439935e-003
9.439937e-003
9.439939e-003
9.439940e-003
9.439941e-003
9.439941e-003
9.439942e-003
9.439942e-003
9.439943e-003
9.439943e-003
9.439943e-003
9.439943e-003
9.439943e-003
9.439943e-003
9.439943e-003
9.439943e-003
9.439942e-003
9.439942e-003
9.439942e-003
9.439942e-003
9.439942e-003
9.439942e-003
9.439942e-003
9.439942e-003
9.439942e-003
9.439942e-003
9.439941e-003
9.439940e-003
9.439939e-003
9.439939e-003
9.439938e-003
9.439937e-003
9.439936e-003
9.439934e-003
9.439933e-003
9.439932e-003
9.439930e-003
9.439928e-003
9.439925e-003
9.439923e-003
9.439922e-003
9.439920e-003
9.439919e-003
9.439919e-003
9.439919e-003
9.439919e-003
9.439921e-003
9.439922e-003
9.439923e-003
9.439922e-003
9.439921e-003
9.439920e-003
9.439919e-003
9.439919e-003
9.439918e-003
9.439919e-003
9.439920e-003
9.439921e-003
9.439922e-003
9.439921e-003
9.439920e-003
9.439919e-003
9.439919e-003
9.439920e-003
9.439921e-003
9.439921e-003
9.439920e-003
9.439920e-003
9.439919e-003
9.439920e-003
9.439920e-003
9.439894e-003
9.439903e-003
9.439916e-003
9.439927e-003
9.439930e-003
9.439927e-003
9.439920e-003
9.439916e-003
9.439915e-003
9.439917e-003
9.439920e-003
9.439922e-003
9.439922e-003
9.439922e-003
9.439921e-003
9.439921e-003
9.439921e-003
9.439920e-003
9.439920e-003
9.439921e-003
9.439923e-003
9.439925e-003
9.439926e-003
9.439928e-003
9.439930e-003
9.439932e-003
9.439934e-003
9.439937e-003
9.439938e-003
9.439940e-003
9.439942e-003
9.439944e-003
9.439945e-003
9.439946e-003
9.439945e-003
9.439945e-003
9.439943e-003
9.439941e-003
9.439939e-003
9.439935e-003
9.439932e-003
9.439928e-003
9.439925e-003
9.439923e-003
9.439921e-003
9.439919e-003
9.439918e-003
9.439919e-003
9.439920e-003
9.439922e-003
9.439925e-003
9.439927e-003
9.439930e-003
9.439934e-003
9.439937e-003
9.439939e-003
9.439941e-003
9.439942e-003
9.439942e-003
9.439942e-003
9.439942e-003
9.439940e-003
9.439938e-003
9.439937e-003
9.439935e-003
9.439933e-003
9.439931e-003
9.439929e-003
9.439927e-003
9.439926e-003
9.439924e-003
9.439923e-003
9.439921e-003
9.439920e-003
9.439920e-003
9.439920e-003
9.439921e-003
9.439921e-003
9.439921e-003
9.439921e-003
9.439920e-003
9.439920e-003
9.439919e-003
9.439918e-003
9.439919e-003
9.439920e-003
9.439921e-003
9.439922e-003
9.439921e-003
9.439920e-003
9.439919e-003
9.439919e-003
9.439919e-003
9.439920e-003
9.439921e-003
9.439921e-003
9.439920e-003
9.439920e-003
9.439920e-003
9.439920e-003
9.439903e-003
9.439909e-003
9.439918e-003
9.439925e-003
9.439927e-003
9.439923e-003
9.439918e-003
9.439915e-003
9.439917e-003
9.439921e-003
9.439924e-003
9.439924e-003
9.439921e-003
9.439918e-003
9.439916e-003
9.439918e-003
9.439920e-003
9.439923e-003
9.439925e-003
9.439926e-003
9.439928e-003
9.439931e-003
9.439933e-003
9.439934e-003
9.439936e-003
9.439937e-003
9.439939e-003
9.439942e-003
9.439943e-003
9.439944e-003
9.439944e-003
9.439943e-003
9.439940e-003
9.439935e-003
9.439928e-003
9.439918e-003
9.439907e-003
9.439894e-003
9.439880e-003
9.439866e-003
9.439851e-003
9.439838e-003
9.439826e-003
9.439816e-003
9.439809e-003
9.439804e-003
9.439803e-003
9.439805e-003
9.439810e-003
9.439818e-003
9.439828e-003
9.439840e-003
9.439854e-003
9.439868e-003
9.439882e-003
9.439896e-003
9.439908e-003
9.439918e-003
9.439927e-003
9.439933e-003
9.439937e-003
9.439939e-003
9.439940e-003
9.439940e-003
9.439939e-003
9.439937e-003
9.439935e-003
9.439933e-003
9.439932e-003
9.439931e-003
9.439929e-003
9.439927e-003
9.439925e-003
9.439924e-003
9.439922e-003
9.439920e-003
9.439919e-003
9.439919e-003
9.439919e-003
9.439920e-003
9.439921e-003
9.439921e-003
9.439921e-003
9.439920e-003
9.439920e-003
9.439920e-003
9.439920e-003
9.439920e-003
9.439920e-003
9.439920e-003
9.439920e-003
9.439920e-003
9.439920e-003
9.439920e-003
9.439920e-003
9.439920e-003
9.439921e-003
9.439920e-003
9.439920e-003
9.439919e-003
9.439925e-003
9.439924e-003
9.439922e-003
9.439920e-003
9.439918e-003
9.439917e-003
9.439917e-003
9.439918e-003
9.439921e-003
9.439924e-003
9.439925e-003
9.439924e-003
9.439920e-003
9.439916e-003
9.439915e-003
9.439918e-003
9.439922e-003
9.439926e-003
9.439928e-003
9.439930e-003
9.439932e-003
9.439935e-003
9.439939e-003
9.439941e-003
9.439943e-003
9.439945e-003
9.439946e-003
9.439946e-003
9.439944e-003
9.439937e-003
9.439927e-003
9.439912e-003
9.439892e-003
9.439866e-003
9.439835e-003
9.439798e-003
9.439758e-003
9.439715e-003
9.439670e-003
9.439625e-003
9.439582e-003
9.439542e-003
9.439507e-003
9.439479e-003
9.439458e-003
9.439446e-003
9.439443e-003
9.439449e-003
9.439465e-003
9.439488e-003
9.439519e-003
9.439556e-003
9.439597e-003
9.439641e-003
9.439687e-003
9.439731e-003
9.439773e-003
9.439812e-003
9.439846e-003
9.439875e-003
9.439897e-003
9.439915e-003
9.439927e-003
9.439935e-003
9.439940e-003
9.439941e-003
9.439941e-003
9.439939e-003
9.439937e-003
9.439935e-003
9.439933e-003
9.439931e-003
9.439929e-003
9.439926e-003
9.439924e-003
9.439922e-003
9.439920e-003
9.439918e-003
9.439918e-003
9.439919e-003
9.439921e-003
9.439922e-003
9.439922e-003
9.439921e-003
9.439921e-003
9.439920e-003
9.439919e-003
9.439919e-003
9.439919e-003
9.439920e-003
9.439921e-003
9.439921e-003
9.439920e-003
9.439919e-003
9.439919e-003
9.439920e-003
9.439921e-003
9.439921e-003
9.439920e-003
9.439919e-003
9.439943e-003
9.439935e-003
9.439923e-003
9.439915e-003
9.439912e-003
9.439915e-003
9.439919e-003
9.439922e-003
9.439923e-003
9.439923e-003
9.439922e-003
9.439921e-003
9.439919e-003
9.439919e-003
9.439920e-003
9.439923e-003
9.439927e-003
9.439930e-003
9.439931e-003
9.439933e-003
9.439935e-003
9.439939e-003
9.439944e-003
9.439948e-003
9.439949e-003
9.439947e-003
9.439942e-003
9.439931e-003
9.439911e-003
9.439881e-003
9.439839e-003
9.439784e-003
9.439716e-003
9.439635e-003
9.439541e-003
9.439436e-003
9.439322e-003
9.439202e-003
9.439081e-003
9.438961e-003
9.438848e-003
9.438744e-003
9.438654e-003
9.438581e-003
9.438529e-003
9.438498e-003
9.438491e-003
9.438508e-003
9.438547e-003
9.438609e-003
9.438690e-003
9.438786e-003
9.438896e-003
9.439014e-003
9.439136e-003
9.439259e-003
9.439377e-003
9.439488e-003
9.439588e-003
9.439676e-003
9.439750e-003
9.439811e-003
9.439858e-003
9.439893e-003
9.439916e-003
9.439931e-003
9.439939e-003
9.439942e-003
9.439942e-003
9.439940e-003
9.439936e-003
9.439933e-003
9.439931e-003
9.439929e-003
9.439927e-003
9.439925e-003
9.439923e-003
9.439921e-003
9.439920e-003
9.439920e-003
9.439920e-003
9.439920e-003
9.439921e-003
9.439921e-003
9.439921e-003
9.439920e-003
9.439919e-003
9.439918e-003
9.439918e-003
9.439920e-003
9.439922e-003
9.439922e-003
9.439921e-003
9.439919e-003
9.439918e-003
9.439919e-003
9.439921e-003
9.439921e-003
9.439920e-003
9.439919e-003
9.439944e-003
9.439934e-003
9.439921e-003
9.439912e-003
9.439912e-003
9.439918e-003
9.439924e-003
9.439926e-003
9.439922e-003
9.439918e-003
9.439916e-003
9.439918e-003
9.439921e-003
9.439925e-003
9.439928e-003
9.439929e-003
9.439931e-003
9.439933e-003
9.439935e-003
9.439938e-003
9.439941e-003
9.439946e-003
9.439949e-003
9.439948e-003
9.439941e-003
9.439923e-003
9.439892e-003
9.439844e-003
9.439775e-003
9.439681e-003
9.439557e-003
9.439402e-003
9.439217e-003
9.439001e-003
9.438757e-003
9.438489e-003
9.438202e-003
9.437905e-003
9.437606e-003
9.437314e-003
9.437039e-003
9.436789e-003
9.436573e-003
9.436400e-003
9.436276e-003
9.436204e-003
9.436188e-003
9.436229e-003
9.436324e-003
9.436472e-003
9.436667e-003
9.436901e-003
9.437167e-003
9.437456e-003
9.437756e-003
9.438060e-003
9.438356e-003
9.438638e-003
9.438897e-003
9.439128e-003
9.439328e-003
9.439495e-003
9.439631e-003
9.439736e-003
9.439814e-003
9.439869e-003
9.439905e-003
9.439927e-003
9.439938e-003
9.439941e-003
9.439940e-003
9.439938e-003
9.439935e-003
9.439932e-003
9.439930e-003
9.439928e-003
9.439927e-003
9.439925e-003
9.439923e-003
9.439922e-003
9.439920e-003
9.439919e-003
9.439919e-003
9.439920e-003
9.439921e-003
9.439921e-003
9.439920e-003
9.439919e-003
9.439919e-003
9.439920e-003
9.439921e-003
9.439922e-003
9.439920e-003
9.439919e-003
9.439919e-003
9.439919e-003
9.439921e-003
9.439921e-003
9.439920e-003
9.439919e-003
9.439930e-003
9.439924e-003
9.439917e-003
9.439914e-003
9.439917e-003
9.439923e-003
9.439927e-003
9.439925e-003
9.439920e-003
9.439915e-003
9.439914e-003
9.439918e-003
9.439925e-003
9.439930e-003
9.439932e-003
9.439933e-003
9.439934e-003
9.439938e-003
9.439943e-003
9.439948e-003
9.439951e-003
9.439950e-003
9.439941e-003
9.439921e-003
9.439881e-003
9.439816e-003
9.439716e-003
9.439574e-003
9.439381e-003
9.439129e-003
9.438811e-003
9.438424e-003
9.437966e-003
9.437443e-003
9.436858e-003
9.436224e-003
9.435555e-003
9.434867e-003
9.434180e-003
9.433514e-003
9.432890e-003
9.432328e-003
9.431846e-003
9.431460e-003
9.431183e-003
9.431024e-003
9.430991e-003
9.431082e-003
9.431297e-003
9.431629e-003
9.432067e-003
9.432596e-003
9.433199e-003
9.433856e-003
9.434546e-003
9.435247e-003
9.435938e-003
9.436600e-003
9.437216e-003
9.437773e-003
9.438263e-003
9.438680e-003
9.439025e-003
9.439301e-003
9.439513e-003
9.439670e-003
9.439781e-003
9.439855e-003
9.439901e-003
9.439927e-003
9.439939e-003
9.439942e-003
9.439941e-003
9.439938e-003
9.439935e-003
9.439932e-003
9.439929e-003
9.439928e-003
9.439926e-003
9.439924e-003
9.439921e-003
9.439919e-003
9.439918e-003
9.439919e-003
9.439921e-003
9.439922e-003
9.439921e-003
9.439920e-003
9.439920e-003
9.439920e-003
9.439920e-003
9.439920e-003
9.439920e-003
9.439920e-003
9.439920e-003
9.439920e-003
9.439920e-003
9.439920e-003
9.439920e-003
9.439920e-003
9.439911e-003
9.439913e-003
9.439916e-003
9.439920e-003
9.439923e-003
9.439925e-003
9.439924e-003
9.439922e-003
9.439919e-003
9.439917e-003
9.439918e-003
9.439923e-003
9.439928e-003
9.439932e-003
9.439934e-003
9.439935e-003
9.439939e-003
9.439945e-003
9.439952e-003
9.439956e-003
9.439950e-003
9.439929e-003
9.439886e-003
9.439810e-003
9.439688e-003
9.439504e-003
9.439239e-003
9.438876e-003
9.438397e-003
9.437787e-003
9.437033e-003
9.436129e-003
9.435078e-003
9.433890e-003
9.432580e-003
9.431176e-003
9.429709e-003
9.428216e-003
9.426738e-003
9.425318e-003
9.423998e-003
9.422815e-003
9.421807e-003
9.421005e-003
9.420432e-003
9.420106e-003
9.420039e-003
9.420232e-003
9.420682e-003
9.421376e-003
9.422293e-003
9.423406e-003
9.424681e-003
9.426080e-003
9.427560e-003
9.429077e-003
9.430586e-003
9.432046e-003
9.433419e-003
9.434676e-003
9.435795e-003
9.436762e-003
9.437573e-003
9.438233e-003
9.438752e-003
9.439147e-003
9.439436e-003
9.439639e-003
9.439774e-003
9.439859e-003
9.439908e-003
9.439933e-003
9.439943e-003
9.439944e-003
9.439940e-003
9.439936e-003
9.439932e-003
9.439929e-003
9.439927e-003
9.439925e-003
9.439923e-003
9.439921e-003
9.439919e-003
9.439919e-003
9.439920e-003
9.439921e-003
9.439921e-003
9.439921e-003
9.439921e-003
9.439919e-003
9.439919e-003
9.439919e-003
9.439920e-003
9.439921e-003
9.439921e-003
9.439921e-003
9.439920e-003
9.439919e-003
9.439920e-003
9.439920e-003
9.439901e-003
9.439909e-003
9.439919e-003
9.439926e-003
9.439926e-003
9.439922e-003
9.439918e-003
9.439917e-003
9.439920e-003
9.439923e-003
9.439926e-003
9.439929e-003
9.439931e-003
9.439934e-003
9.439937e-003
9.439941e-003
9.439947e-003
9.439953e-003
9.439955e-003
9.439942e-003
9.439906e-003
9.439831e-003
9.439703e-003
9.439496e-003
9.439183e-003
9.438727e-003
9.438093e-003
9.437242e-003
9.436141e-003
9.434761e-003
9.433085e-003
9.431107e-003
9.428839e-003
9.426308e-003
9.423559e-003
9.420649e-003
9.417649e-003
9.414634e-003
9.411687e-003
9.408886e-003
9.406308e-003
9.404023e-003
9.402091e-003
9.400564e-003
9.399482e-003
9.398873e-003
9.398754e-003
9.399128e-003
9.399990e-003
9.401317e-003
9.403079e-003
9.405230e-003
9.407714e-003
9.410463e-003
9.413402e-003
9.416447e-003
9.419514e-003
9.422519e-003
9.425384e-003
9.428041e-003
9.430439e-003
9.432543e-003
9.434334e-003
9.435813e-003
9.436996e-003
9.437912e-003
9.438597e-003
9.439090e-003
9.439431e-003
9.439656e-003
9.439796e-003
9.439878e-003
9.439921e-003
9.439940e-003
9.439944e-003
9.439941e-003
9.439936e-003
9.439932e-003
9.439929e-003
9.439927e-003
9.439925e-003
9.439924e-003
9.439922e-003
9.439921e-003
9.439920e-003
9.439919e-003
9.439920e-003
9.439921e-003
9.439921e-003
9.439920e-003
9.439919e-003
9.439918e-003
9.439920e-003
9.439921e-003
9.439922e-003
9.439921e-003
9.439919e-003
9.439918e-003
9.439920e-003
9.439921e-003
9.439901e-003
9.439911e-003
9.439924e-003
9.439930e-003
9.439926e-003
9.439917e-003
9.439912e-003
9.439915e-003
9.439923e-003
9.439930e-003
9.439933e-003
9.439933e-003
9.439934e-003
9.439937e-003
9.439944e-003
9.439952e-003
9.439956e-003
9.439951e-003
9.439928e-003
9.439870e-003
9.439756e-003
9.439556e-003
9.439231e-003
9.438732e-003
9.437997e-003
9.436955e-003
9.435535e-003
9.433666e-003
9.431287e-003
9.428357e-003
9.424856e-003
9.420795e-003
9.416220e-003
9.411208e-003
9.405866e-003
9.400322e-003
9.394718e-003
9.389199e-003
9.383910e-003
9.378981e-003
9.374529e-003
9.370652e-003
9.367428e-003
9.364918e-003
9.363164e-003
9.362196e-003
9.362030e-003
9.362670e-003
9.364106e-003
9.366319e-003
9.369274e-003
9.372919e-003
9.377186e-003
9.381985e-003
9.387207e-003
9.392722e-003
9.398386e-003
9.404048e-003
9.409554e-003
9.414763e-003
9.419554e-003
9.423833e-003
9.427541e-003
9.430658e-003
9.433194e-003
9.435192e-003
9.436712e-003
9.437827e-003
9.438616e-003
9.439151e-003
9.439499e-003
9.439714e-003
9.439838e-003
9.439904e-003
9.439933e-003
9.439943e-003
9.439942e-003
9.439938e-003
9.439934e-003
9.439930e-003
9.439928e-003
9.439927e-003
9.439925e-003
9.439923e-003
9.439920e-003
9.439918e-003
9.439919e-003
9.439920e-003
9.439922e-003
9.439921e-003
9.439919e-003
9.439918e-003
9.439920e-003
9.439921e-003
9.439922e-003
9.439920e-003
9.439918e-003
9.439918e-003
9.439920e-003
9.439922e-003
9.439908e-003
9.439917e-003
9.439926e-003
9.439929e-003
9.439924e-003
9.439915e-003
9.439912e-003
9.439917e-003
9.439927e-003
9.439934e-003
9.439936e-003
9.439936e-003
9.439938e-003
9.439946e-003
9.439956e-003
9.439961e-003
9.439951e-003
9.439912e-003
9.439827e-003
9.439663e-003
9.439375e-003
9.438898e-003
9.438151e-003
9.437030e-003
9.435416e-003
9.433175e-003
9.430178e-003
9.426307e-003
9.421476e-003
9.415644e-003
9.408831e-003
9.401122e-003
9.392671e-003
9.383690e-003
9.374431e-003
9.365167e-003
9.356165e-003
9.347671e-003
9.339887e-003
9.332966e-003
9.327009e-003
9.322064e-003
9.318144e-003
9.315231e-003
9.313295e-003
9.312305e-003
9.312236e-003
9.313078e-003
9.314835e-003
9.317527e-003
9.321181e-003
9.325820e-003
9.331450e-003
9.338046e-003
9.345540e-003
9.353810e-003
9.362677e-003
9.371911e-003
9.381245e-003
9.390397e-003
9.399092e-003
9.407094e-003
9.414217e-003
9.420350e-003
9.425452e-003
9.429552e-003
9.432733e-003
9.435112e-003
9.436826e-003
9.438015e-003
9.438807e-003
9.439312e-003
9.439618e-003
9.439793e-003
9.439885e-003
9.439928e-003
9.439943e-003
9.439945e-003
9.439940e-003
9.439934e-003
9.439930e-003
9.439928e-003
9.439927e-003
9.439924e-003
9.439921e-003
9.439919e-003
9.439918e-003
9.439920e-003
9.439922e-003
9.439922e-003
9.439920e-003
9.439919e-003
9.439919e-003
9.439921e-003
9.439921e-003
9.439920e-003
9.439919e-003
9.439919e-003
9.439920e-003
9.439921e-003
9.439918e-003
9.439921e-003
9.439923e-003
9.439924e-003
9.439921e-003
9.439918e-003
9.439919e-003
9.439924e-003
9.439930e-003
9.439935e-003
9.439937e-003
9.439939e-003
9.439946e-003
9.439956e-003
9.439962e-003
9.439949e-003
9.439899e-003
9.439785e-003
9.439564e-003
9.439173e-003
9.438515e-003
9.437462e-003
9.435848e-003
9.433479e-003
9.430133e-003
9.425584e-003
9.419626e-003
9.412110e-003
9.402977e-003
9.392295e-003
9.380275e-003
9.367275e-003
9.353777e-003
9.340344e-003
9.327564e-003
9.315980e-003
9.306036e-003
9.298023e-003
9.292061e-003
9.288093e-003
9.285901e-003
9.285149e-003
9.285429e-003
9.286312e-003
9.287406e-003
9.288395e-003
9.289072e-003
9.289366e-003
9.289345e-003
9.289215e-003
9.289297e-003
9.289991e-003
9.291728e-003
9.294917e-003
9.299882e-003
9.306809e-003
9.315707e-003
9.326393e-003
9.338502e-003
9.351528e-003
9.364878e-003
9.377952e-003
9.390207e-003
9.401217e-003
9.410710e-003
9.418570e-003
9.424824e-003
9.429609e-003
9.433131e-003
9.435622e-003
9.437316e-003
9.438421e-003
9.439109e-003
9.439518e-003
9.439748e-003
9.439868e-003
9.439923e-003
9.439943e-003
9.439945e-003
9.439939e-003
9.439934e-003
9.439930e-003
9.439928e-003
9.439926e-003
9.439923e-003
9.439921e-003
9.439919e-003
9.439920e-003
9.439921e-003
9.439921e-003
9.439921e-003
9.439920e-003
9.439919e-003
9.439920e-003
9.439920e-003
9.439920e-003
9.439920e-003
9.439920e-003
9.439920e-003
9.439920e-003
9.439928e-003
9.439923e-003
9.439918e-003
9.439916e-003
9.439919e-003
9.439923e-003
9.439928e-003
9.439931e-003
9.439933e-003
9.439935e-003
9.439940e-003
9.439948e-003
9.439957e-003
9.439960e-003
9.439944e-003
9.439886e-003
9.439747e-003
9.439471e-003
9.438970e-003
9.438112e-003
9.436709e-003
9.434514e-003
9.431222e-003
9.426485e-003
9.419941e-003
9.411262e-003
9.400226e-003
9.386802e-003
9.371236e-003
9.354105e-003
9.336333e-003
9.319143e-003
9.303948e-003
9.292190e-003
9.285160e-003
9.283813e-003
9.288635e-003
9.299553e-003
9.315924e-003
9.336582e-003
9.359953e-003
9.384204e-003
9.407411e-003
9.427732e-003
9.443562e-003
9.453656e-003
9.457226e-003
9.454000e-003
9.444251e-003
9.428783e-003
9.408882e-003
9.386216e-003
9.362707e-003
9.340354e-003
9.321042e-003
9.306346e-003
9.297367e-003
9.294612e-003
9.297961e-003
9.306706e-003
9.319676e-003
9.335425e-003
9.352437e-003
9.369330e-003
9.385003e-003
9.398717e-003
9.410104e-003
9.419114e-003
9.425927e-003
9.430862e-003
9.434289e-003
9.436570e-003
9.438025e-003
9.438912e-003
9.439426e-003
9.439709e-003
9.439853e-003
9.439918e-003
9.439941e-003
9.439944e-003
9.439939e-003
9.439934e-003
9.439930e-003
9.439927e-003
9.439925e-003
9.439923e-003
9.439921e-003
9.439920e-003
9.439920e-003
9.439920e-003
9.439921e-003
9.439921e-003
9.439920e-003
9.439919e-003
9.439919e-003
9.439920e-003
9.439921e-003
9.439921e-003
9.439920e-003
9.439919e-003
9.439937e-003
9.439927e-003
9.439915e-003
9.439911e-003
9.439918e-003
9.439928e-003
9.439935e-003
9.439936e-003
9.439935e-003
9.439939e-003
9.439949e-003
9.439960e-003
9.439963e-003
9.439943e-003
9.439875e-003
9.439716e-003
9.439394e-003
9.438791e-003
9.437732e-003
9.435961e-003
9.433130e-003
9.428795e-003
9.422437e-003
9.413506e-003
9.401524e-003
9.386219e-003
9.367727e-003
9.346791e-003
9.324938e-003
9.304551e-003
9.288790e-003
9.281335e-003
9.285975e-003
9.306106e-003
9.344224e-003
9.401496e-003
9.477496e-003
9.570120e-003
9.675695e-003
9.789255e-003
9.904940e-003
1.001646e-002
1.011759e-002
1.020260e-002
1.026660e-002
1.030592e-002
1.031823e-002
1.030274e-002
1.026024e-002
1.019307e-002
1.010508e-002
1.000134e-002
9.887909e-003
9.771375e-003
9.658342e-003
9.554872e-003
9.465949e-003
9.395029e-003
9.343769e-003
9.311965e-003
9.297739e-003
9.297939e-003
9.308689e-003
9.325981e-003
9.346204e-003
9.366502e-003
9.384936e-003
9.400455e-003
9.412728e-003
9.421920e-003
9.428477e-003
9.432943e-003
9.435852e-003
9.437665e-003
9.438744e-003
9.439355e-003
9.439682e-003
9.439844e-003
9.439916e-003
9.439941e-003
9.439944e-003
9.439939e-003
9.439933e-003
9.439929e-003
9.439927e-003
9.439926e-003