# vtk DataFile Version 3.0
vtk output
ASCII
DATASET STRUCTURED_POINTS
DIMENSIONS 100 100 1
SPACING 1 1 1
ORIGIN 0 0 0
POINT_DATA 10000
SCALARS SFBox_profile double
LOOKUP_TABLE default 
0.000000e+000
0.000000e+000
0.000000e+000
0.000000e+000
0.000000e+000
0.000000e+000
0.000000e+000
0.000000e+000
0.000000e+000
0.000000e+000
0.000000e+000
0.000000e+000
0.000000e+000
0.000000e+000
0.000000e+000
0.000000e+000
0.000000e+000
0.000000e+000
0.000000e+000
0.000000e+000
0.000000e+000
0.000000e+000
0.000000e+000
0.000000e+000
0.000000e+000
0.000000e+000
0.000000e+000
0.000000e+000
0.000000e+000
0.000000e+000
0.000000e+000
0.000000e+000
0.000000e+000
0.000000e+000
0.000000e+000
0.000000e+000
0.000000e+000
0.000000e+000
0.000000e+000
0.000000e+000
0.000000e+000
0.000000e+000
0.000000e+000
0.000000e+000
0.000000e+000
0.000000e+000
0.000000e+000
0.000000e+000
0.000000e+000
0.000000e+000
0.000000e+000
0.000000e+000
0.000000e+000
0.000000e+000
0.000000e+000
0.000000e+000
0.000000e+000
0.000000e+000
0.000000e+000
0.000000e+000
0.000000e+000
0.000000e+000
0.000000e+000
0.000000e+000
0.000000e+000
0.000000e+000
0.000000e+000
0.000000e+000
0.000000e+000
0.000000e+000
0.000000e+000
0.000000e+000
0.000000e+000
0.000000e+000
0.000000e+000
0.000000e+000
0.000000e+000
0.000000e+000
0.000000e+000
0.000000e+000
0.000000e+000
0.000000e+000
0.000000e+000
0.000000e+000
0.000000e+000
0.000000e+000
0.000000e+000
0.000000e+000
0.000000e+000
0.000000e+000
0.000000e+000
0.000000e+000
0.000000e+000
0.000000e+000
0.000000e+000
0.000000e+000
0.000000e+000
0.000000e+000
0.000000e+000
0.000000e+000
7.708176e-010
8.514730e-010
9.590572e-010
1.022360e-009
1.005614e-009
9.487633e-010
9.704326e-010
1.225939e-009
1.833872e-009
2.800101e-009
3.969579e-009
5.022016e-009
5.503355e-009
4.863678e-009
2.467437e-009
-2.440450e-009
-1.079683e-008
-2.376728e-008
-4.272954e-008
-6.916964e-008
-1.045085e-007
-1.499107e-007
-2.061366e-007
-2.734737e-007
-3.517476e-007
-4.403791e-007
-5.384483e-007
-6.447452e-007
-7.578140e-007
-8.760146e-007
-9.976209e-007
-1.120947e-006
-1.244471e-006
-1.366913e-006
-1.487259e-006
-1.604713e-006
-1.718656e-006
-1.828604e-006
-1.934222e-006
-2.035351e-006
-2.132030e-006
-2.224469e-006
-2.312972e-006
-2.397847e-006
-2.479322e-006
-2.557525e-006
-2.632499e-006
-2.704239e-006
-2.772695e-006
-2.837733e-006
-2.899060e-006
-2.956150e-006
-3.008228e-006
-3.054304e-006
-3.093254e-006
-3.123886e-006
-3.144970e-006
-3.155213e-006
-3.153231e-006
-3.137547e-006
-3.106652e-006
-3.059119e-006
-2.993733e-006
-2.909592e-006
-2.806166e-006
-2.683323e-006
-2.541392e-006
-2.381273e-006
-2.204601e-006
-2.013891e-006
-1.812598e-006
-1.605002e-006
-1.395950e-006
-1.190495e-006
-9.935368e-007
-8.095330e-007
-6.422813e-007
-4.947452e-007
-3.688724e-007
-2.654083e-007
-1.837709e-007
-1.220865e-007
-7.745632e-008
-4.643399e-008
-2.559066e-008
-1.199200e-008
-3.442415e-009
1.542587e-009
3.954882e-009
4.552476e-009
4.023722e-009
3.005230e-009
1.996970e-009
1.270389e-009
8.522535e-010
6.065057e-010
3.707189e-010
7.147433e-011
-2.406135e-010
-4.443010e-010
3.419453e-010
4.944409e-010
7.397705e-010
9.925371e-010
1.192104e-009
1.343063e-009
1.522108e-009
1.841531e-009
2.377766e-009
3.087859e-009
3.740664e-009
3.880627e-009
2.823998e-009
-3.302185e-010
-6.698064e-009
-1.762863e-008
-3.472860e-008
-5.985645e-008
-9.504533e-008
-1.423355e-007
-2.035370e-007
-2.799791e-007
-3.723148e-007
-4.804302e-007
-6.034666e-007
-7.399272e-007
-8.878229e-007
-1.044821e-006
-1.208385e-006
-1.375910e-006
-1.544871e-006
-1.712969e-006
-1.878247e-006
-2.039164e-006
-2.194588e-006
-2.343735e-006
-2.486096e-006
-2.621369e-006
-2.749446e-006
-2.870410e-006
-2.984539e-006
-3.092265e-006
-3.194089e-006
-3.290487e-006
-3.381829e-006
-3.468351e-006
-3.550177e-006
-3.627359e-006
-3.699889e-006
-3.767673e-006
-3.830463e-006
-3.887800e-006
-3.939000e-006
-3.983194e-006
-4.019402e-006
-4.046593e-006
-4.063703e-006
-4.069601e-006
-4.063039e-006
-4.042629e-006
-4.006876e-006
-3.954259e-006
-3.883318e-006
-3.792727e-006
-3.681328e-006
-3.548167e-006
-3.392570e-006
-3.214310e-006
-3.013846e-006
-2.792599e-006
-2.553160e-006
-2.299371e-006
-2.036240e-006
-1.769709e-006
-1.506322e-006
-1.252821e-006
-1.015692e-006
-8.006537e-007
-6.121385e-007
-4.528189e-007
-3.233246e-007
-2.222545e-007
-1.465305e-007
-9.202465e-008
-5.428985e-008
-2.919059e-008
-1.328192e-008
-3.898412e-009
9.689769e-010
2.868956e-009
3.034737e-009
2.426616e-009
1.702442e-009
1.190364e-009
9.275028e-010
7.773830e-010
5.831503e-010
2.865089e-010
-4.102327e-011
-2.583860e-010
-2.723885e-010
-1.292319e-011
4.433461e-010
9.972217e-010
1.553326e-009
2.055080e-009
2.493960e-009
2.879381e-009
3.167355e-009
3.158745e-009
2.386751e-009
1.500148e-011
-5.238036e-009
-1.514197e-008
-3.196477e-008
-5.844791e-008
-9.773217e-008
-1.532077e-007
-2.282631e-007
-3.259327e-007
-4.484822e-007
-5.970166e-007
-7.712071e-007
-9.692151e-007
-1.187830e-006
-1.422787e-006
-1.669172e-006
-1.921849e-006
-2.175822e-006
-2.426530e-006
-2.670057e-006
-2.903266e-006
-3.123864e-006
-3.330381e-006
-3.522088e-006
-3.698844e-006
-3.860942e-006
-4.008966e-006
-4.143694e-006
-4.266037e-006
-4.376996e-006
-4.477594e-006
-4.568800e-006
-4.651434e-006
-4.726113e-006
-4.793247e-006
-4.853090e-006
-4.905812e-006
-4.951562e-006
-4.990472e-006
-5.022640e-006
-5.048102e-006
-5.066834e-006
-5.078804e-006
-5.084033e-006
-5.082629e-006
-5.074765e-006
-5.060592e-006
-5.040121e-006
-5.013118e-006
-4.979022e-006
-4.936889e-006
-4.885343e-006
-4.822491e-006
-4.745842e-006
-4.652253e-006
-4.537972e-006
-4.398861e-006
-4.230788e-006
-4.030209e-006
-3.794835e-006
-3.524323e-006
-3.220858e-006
-2.889530e-006
-2.538386e-006
-2.178049e-006
-1.820863e-006
-1.479616e-006
-1.166021e-006
-8.892727e-007
-6.550054e-007
-4.649151e-007
-3.170986e-007
-2.069615e-007
-1.283880e-007
-7.484724e-008
-4.020660e-008
-1.917819e-008
-7.459882e-009
-1.697421e-009
6.143593e-010
1.227906e-009
1.232018e-009
1.161079e-009
1.147607e-009
1.110956e-009
9.411458e-010
6.227790e-010
2.619886e-010
2.263017e-011
-6.780846e-010
-3.334932e-010
3.054159e-010
1.146350e-009
2.069495e-009
2.941492e-009
3.615229e-009
3.896846e-009
3.463011e-009
1.721537e-009
-2.375117e-009
-1.053605e-008
-2.531687e-008
-5.023726e-008
-8.978780e-008
-1.492896e-007
-2.345777e-007
-3.514904e-007
-5.051750e-007
-6.992726e-007
-9.351120e-007
-1.211096e-006
-1.522460e-006
-1.861507e-006
-2.218306e-006
-2.581705e-006
-2.940457e-006
-3.284223e-006
-3.604324e-006
-3.894159e-006
-4.149329e-006
-4.367530e-006
-4.548304e-006
-4.692710e-006
-4.802953e-006
-4.882008e-006
-4.933259e-006
-4.960194e-006
-4.966168e-006
-4.954235e-006
-4.927051e-006
-4.886811e-006
-4.835211e-006
-4.773447e-006
-4.702265e-006
-4.622075e-006
-4.533127e-006
-4.435716e-006
-4.330366e-006
-4.217961e-006
-4.099818e-006
-3.977743e-006
-3.854072e-006
-3.731729e-006
-3.614261e-006
-3.505802e-006
-3.410942e-006
-3.334509e-006
-3.281264e-006
-3.255576e-006
-3.261057e-006
-3.300160e-006
-3.373728e-006
-3.480488e-006
-3.616526e-006
-3.774820e-006
-3.944958e-006
-4.113154e-006
-4.262710e-006
-4.375020e-006
-4.431154e-006
-4.413964e-006
-4.310511e-006
-4.114452e-006
-3.827883e-006
-3.462102e-006
-3.036874e-006
-2.578097e-006
-2.114224e-006
-1.672169e-006
-1.273677e-006
-9.329769e-007
-6.561523e-007
-4.420941e-007
-2.844740e-007
-1.740260e-007
-1.005532e-007
-5.436502e-008
-2.711446e-008
-1.215510e-008
-4.572754e-009
-1.019808e-009
5.606320e-010
1.262214e-009
1.549717e-009
1.560029e-009
1.332818e-009
9.442817e-010
5.387112e-010
2.815029e-010
-4.787803e-010
-1.231446e-010
5.733278e-010
1.557898e-009
2.705662e-009
3.785978e-009
4.426202e-009
4.048963e-009
1.747562e-009
-3.928650e-009
-1.527968e-008
-3.581104e-008
-7.055820e-008
-1.262648e-007
-2.112869e-007
-3.351049e-007
-5.073613e-007
-7.364181e-007
-1.027562e-006
-1.381149e-006
-1.791140e-006
-2.244491e-006
-2.721711e-006
-3.198628e-006
-3.649014e-006
-4.047533e-006
-4.372411e-006
-4.607337e-006
-4.742383e-006
-4.773961e-006
-4.704060e-006
-4.539075e-006
-4.288508e-006
-3.963767e-006
-3.577126e-006
-3.140874e-006
-2.666648e-006
-2.164902e-006
-1.644548e-006
-1.112738e-006
-5.748092e-007
-3.435965e-008
5.065604e-007
1.047163e-006
1.587554e-006
2.128285e-006
2.669856e-006
3.212203e-006
3.754234e-006
4.293472e-006
4.825792e-006
5.345261e-006
5.844038e-006
6.312334e-006
6.738455e-006
7.108974e-006
7.409055e-006
7.622914e-006
7.734408e-006
7.727724e-006
7.588199e-006
7.303290e-006
6.863744e-006
6.264963e-006
5.508540e-006
4.603877e-006
3.569702e-006
2.435236e-006
1.240622e-006
3.617999e-008
-1.119929e-006
-2.165915e-006
-3.042377e-006
-3.699542e-006
-4.104614e-006
-4.247610e-006
-4.144053e-006
-3.833331e-006
-3.372614e-006
-2.827459e-006
-2.261334e-006
-1.726627e-006
-1.259189e-006
-8.771511e-007
-5.833854e-007
-3.700217e-007
-2.233372e-007
-1.278236e-007
-6.894059e-008
-3.459765e-008
-1.565427e-008
-5.775184e-009
-9.306898e-010
1.231830e-009
1.985549e-009
1.996305e-009
1.635338e-009
1.146915e-009
7.129752e-010
4.625173e-010
5.773401e-010
8.439177e-010
1.415727e-009
2.301544e-009
3.370706e-009
4.234833e-009
4.129469e-009
1.767322e-009
-4.890593e-009
-1.899325e-008
-4.529032e-008
-9.068245e-008
-1.646665e-007
-2.794229e-007
-4.492295e-007
-6.888874e-007
-1.010963e-006
-1.421959e-006
-1.918002e-006
-2.481162e-006
-3.077722e-006
-3.659448e-006
-4.168082e-006
-4.542264e-006
-4.725370e-006
-4.672482e-006
-4.355136e-006
-3.763176e-006
-2.903796e-006
-1.798506e-006
-4.789846e-007
1.017227e-006
2.650511e-006
4.382115e-006
6.176205e-006
8.001163e-006
9.830325e-006
1.164232e-005
1.342108e-005
1.515569e-005
1.683982e-005
1.847116e-005
2.005050e-005
2.158084e-005
2.306635e-005
2.451130e-005
2.591914e-005
2.729147e-005
2.862731e-005
2.992246e-005
3.116919e-005
3.235605e-005
3.346783e-005
3.448570e-005
3.538737e-005
3.614750e-005
3.673809e-005
3.712907e-005
3.728888e-005
3.718510e-005
3.678528e-005
3.605797e-005
3.497419e-005
3.350950e-005
3.164681e-005
2.937997e-005
2.671827e-005
2.369138e-005
2.035420e-005
1.679050e-005
1.311376e-005
9.463858e-006
5.998078e-006
2.876187e-006
2.409886e-007
-1.802455e-006
-3.204149e-006
-3.978172e-006
-4.199980e-006
-3.991674e-006
-3.498596e-006
-2.863465e-006
-2.204882e-006
-1.605130e-006
-1.108498e-006
-7.277733e-007
-4.546383e-007
-2.700020e-007
-1.518789e-007
-8.018048e-008
-3.887891e-008
-1.639272e-008
-4.993891e-009
1.601096e-010
1.979082e-009
2.176550e-009
1.742820e-009
1.211874e-009
8.191946e-010
6.254361e-010
2.504854e-009
2.589613e-009
2.846262e-009
3.323547e-009
3.819650e-009
3.630986e-009
1.279920e-009
-5.809859e-009
-2.175544e-008
-5.282618e-008
-1.081996e-007
-2.006945e-007
-3.471185e-007
-5.676432e-007
-8.834419e-007
-1.311859e-006
-1.858870e-006
-2.509707e-006
-3.220023e-006
-3.911044e-006
-4.471912e-006
-4.770478e-006
-4.670900e-006
-4.053925e-006
-2.834816e-006
-9.748455e-007
1.515613e-006
4.581932e-006
8.135792e-006
1.206843e-005
1.626364e-005
2.060861e-005
2.500144e-005
2.935563e-005
3.360197e-005
3.768852e-005
4.157943e-005
4.525309e-005
4.869987e-005
5.191974e-005
5.491986e-005
5.771236e-005
6.031214e-005
6.273504e-005
6.499624e-005
6.710900e-005
6.908369e-005
7.092715e-005
7.264233e-005
7.422837e-005
7.568092e-005
7.699283e-005
7.815478e-005
7.915595e-005
7.998451e-005
8.062783e-005
8.107234e-005
8.130281e-005
8.130098e-005
8.104356e-005
8.049977e-005
7.962876e-005
7.837734e-005
7.667882e-005
7.445378e-005
7.161384e-005
6.806969e-005
6.374398e-005
5.858920e-005
5.260912e-005
4.588072e-005
3.857094e-005
3.094152e-005
2.333521e-005
1.614052e-005
9.738085e-006
4.439465e-006
4.336057e-007
-2.243757e-006
-3.708447e-006
-4.193677e-006
-3.993462e-006
-3.401032e-006
-2.659799e-006
-1.937890e-006
-1.327158e-006
-8.590951e-007
-5.270555e-007
-3.062690e-007
-1.676646e-007
-8.530776e-008
-3.915197e-008
-1.508340e-008
-3.787599e-009
6.170455e-010
1.713854e-009
1.564493e-009
1.202949e-009
9.897187e-010
9.252632e-010
5.068676e-009
4.907076e-009
4.672553e-009
4.351223e-009
3.483119e-009
7.146777e-010
-6.734137e-009
-2.371838e-008
-5.798914e-008
-1.211998e-007
-2.299542e-007
-4.064545e-007
-6.778520e-007
-1.072866e-006
-1.613902e-006
-2.303380e-006
-3.105041e-006
-3.924515e-006
-4.597034e-006
-4.890971e-006
-4.532108e-006
-3.246095e-006
-8.089877e-007
2.907850e-006
7.910574e-006
1.407946e-005
2.118798e-005
2.893790e-005
3.700085e-005
4.505723e-005
5.282581e-005
6.008119e-005
6.666028e-005
7.246046e-005
7.743297e-005
8.157358e-005
8.491245e-005
8.750371e-005
8.941557e-005
9.072168e-005
9.149405e-005
9.179786e-005
9.168836e-005
9.120968e-005
9.039531e-005
8.926995e-005
8.785230e-005
8.615848e-005
8.420586e-005
8.201714e-005
7.962441e-005
7.707299e-005
7.442450e-005
7.175888e-005
6.917499e-005
6.678941e-005
6.473309e-005
6.314537e-005
6.216505e-005
6.191835e-005
6.250386e-005
6.397500e-005
6.632062e-005
6.944539e-005
7.315218e-005
7.713011e-005
8.095323e-005
8.409562e-005
8.596923e-005
8.598875e-005
8.366227e-005
7.869690e-005
7.109638e-005
6.121908e-005
4.976752e-005
3.769611e-005
2.604971e-005
1.577082e-005
7.528789e-006
1.621055e-006
-2.030930e-006
-3.798987e-006
-4.211591e-006
-3.811051e-006
-3.046476e-006
-2.223725e-006
-1.508308e-006
-9.601215e-007
-5.762477e-007
-3.259709e-007
-1.726881e-007
-8.440842e-008
-3.696967e-008
-1.365349e-008
-3.566674e-009
2.172907e-011
9.720288e-010
1.197587e-009
1.370299e-009
1.519644e-009
7.842375e-009
7.388517e-009
6.464704e-009
4.772148e-009
1.217402e-009
-6.819724e-009
-2.443223e-008
-6.036443e-008
-1.284223e-007
-2.489721e-007
-4.500114e-007
-7.665847e-007
-1.236233e-006
-1.887058e-006
-2.714954e-006
-3.649516e-006
-4.515185e-006
-5.003400e-006
-4.676635e-006
-3.019844e-006
4.619419e-007
6.121658e-006
1.405888e-005
2.405394e-005
3.556758e-005
4.780705e-005
5.984172e-005
7.073694e-005
7.967374e-005
8.603160e-005
8.942512e-005
8.969892e-005
8.689414e-005
8.120231e-005
7.291847e-005
6.239947e-005
5.002821e-005
3.618358e-005
2.121558e-005
5.426541e-006
-1.094062e-005
-2.770677e-005
-4.475377e-005
-6.201559e-005
-7.946488e-005
-9.709677e-005
-1.149113e-004
-1.328960e-004
-1.510094e-004
-1.691662e-004
-1.872243e-004
-2.049745e-004
-2.221338e-004
-2.383422e-004
-2.531639e-004
-2.660927e-004
-2.765628e-004
-2.839648e-004
-2.876686e-004
-2.870521e-004
-2.815391e-004
-2.706446e-004
-2.540303e-004
-2.315700e-004
-2.034235e-004
-1.701151e-004
-1.326069e-004
-9.235006e-005
-5.128813e-005
-1.177929e-005
2.359388e-005
5.233902e-005
7.246356e-005
8.289354e-005
8.377129e-005
7.650348e-005
6.350176e-005
4.767403e-005
3.181461e-005
1.807364e-005
7.663798e-006
8.563109e-007
-2.798601e-006
-4.138946e-006
-4.068517e-006
-3.334293e-006
-2.434111e-006
-1.630262e-006
-1.017093e-006
-5.952604e-007
-3.270371e-007
-1.677765e-007
-7.944534e-008
-3.406174e-008
-1.278883e-008
-3.813986e-009
-3.136492e-010
1.170715e-009
2.000600e-009
2.448760e-009
1.029751e-008
9.473267e-009
7.522643e-009
3.480702e-009
-5.019701e-009
-2.289199e-008
-5.916237e-008
-1.289317e-007
-2.555507e-007
-4.723993e-007
-8.226971e-007
-1.354025e-006
-2.101878e-006
-3.055152e-006
-4.099638e-006
-4.947399e-006
-5.079731e-006
-3.748420e-006
-7.751456e-008
6.723678e-006
1.707505e-005
3.074898e-005
4.669834e-005
6.306140e-005
7.737509e-005
8.695275e-005
8.931751e-005
8.257825e-005
6.566338e-005
3.837454e-005
1.280361e-006
-4.448812e-005
-9.746786e-005
-1.560650e-004
-2.187024e-004
-2.839157e-004
-3.504122e-004
-4.171060e-004
-4.831382e-004
-5.478815e-004
-6.109306e-004
-6.720784e-004
-7.312790e-004
-7.886039e-004
-8.441924e-004
-8.982034e-004
-9.507705e-004
-1.001963e-003
-1.051754e-003
-1.099998e-003
-1.146416e-003
-1.190587e-003
-1.231951e-003
-1.269813e-003
-1.303357e-003
-1.331659e-003
-1.353698e-003
-1.368374e-003
-1.374510e-003
-1.370864e-003
-1.356141e-003
-1.329008e-003
-1.288138e-003
-1.232285e-003
-1.160420e-003
-1.071933e-003
-9.669284e-004
-8.465822e-004
-7.135222e-004
-5.721231e-004
-4.285619e-004
-2.904745e-004
-1.661132e-004
-6.305404e-005
1.330890e-005
6.105500e-005
8.228631e-005
8.255693e-005
6.932870e-005
5.009785e-005
3.083877e-005
1.519939e-005
4.549988e-006
-1.412130e-006
-3.869768e-006
-4.193677e-006
-3.511019e-006
-2.550236e-006
-1.679056e-006
-1.023211e-006
-5.827886e-007
-3.110306e-007
-1.551002e-007
-7.174249e-008
-3.035507e-008
-1.126342e-008
-2.887835e-009
8.692352e-010
2.716178e-009
3.552401e-009
1.187108e-008
1.047275e-008
6.816140e-009
-1.312444e-009
-1.854541e-008
-5.367047e-008
-1.220725e-007
-2.487080e-007
-4.709292e-007
-8.392862e-007
-1.411991e-006
-2.234755e-006
-3.293756e-006
-4.431098e-006
-5.228487e-006
-4.900880e-006
-2.284555e-006
3.980234e-006
1.501643e-005
3.107298e-005
5.084889e-005
7.102540e-005
8.626778e-005
8.987832e-005
7.498240e-005
3.590805e-005
-3.064681e-005
-1.250477e-004
-2.448801e-004
-3.856347e-004
-5.416090e-004
-7.067679e-004
-8.754076e-004
-1.042577e-003
-1.204280e-003
-1.357519e-003
-1.500251e-003
-1.631286e-003
-1.750150e-003
-1.856938e-003
-1.952147e-003
-2.036520e-003
-2.110910e-003
-2.176166e-003
-2.233052e-003
-2.282202e-003
-2.324102e-003
-2.359097e-003
-2.387422e-003
-2.409251e-003
-2.424759e-003
-2.434180e-003
-2.437880e-003
-2.436400e-003
-2.430492e-003
-2.421118e-003
-2.409409e-003
-2.396580e-003
-2.383790e-003
-2.371950e-003
-2.361472e-003
-2.351961e-003
-2.341880e-003
-2.328200e-003
-2.306109e-003
-2.268891e-003
-2.208123e-003
-2.114425e-003
-1.978959e-003
-1.795746e-003
-1.564500e-003
-1.293104e-003
-9.983706e-004
-7.039846e-004
-4.357610e-004
-2.157644e-004
-5.725242e-005
3.811714e-005
7.965832e-005
8.345141e-005
6.676313e-005
4.366034e-005
2.292179e-005
8.279728e-006
-4.229771e-008
-3.574007e-006
-4.234669e-006
-3.577491e-006
-2.563707e-006
-1.650244e-006
-9.790883e-007
-5.418985e-007
-2.809173e-007
-1.361429e-007
-6.112203e-008
-2.466522e-008
-7.852546e-009
-2.845336e-010
3.117347e-009
4.472783e-009
1.196717e-008
9.537664e-009
2.880372e-009
-1.229881e-008
-4.433290e-008
-1.081581e-007
-2.288814e-007
-4.457536e-007
-8.145673e-007
-1.403449e-006
-2.271345e-006
-3.411020e-006
-4.635705e-006
-5.406256e-006
-4.650657e-006
-7.139928e-007
8.355967e-006
2.401313e-005
4.590071e-005
7.029825e-005
8.890784e-005
8.883183e-005
5.445182e-005
-2.903091e-005
-1.713245e-004
-3.737289e-004
-6.282573e-004
-9.190520e-004
-1.225191e-003
-1.524188e-003
-1.795471e-003
-2.023027e-003
-2.196696e-003
-2.312151e-003
-2.370054e-003
-2.374809e-003
-2.333247e-003
-2.253370e-003
-2.143291e-003
-2.010422e-003
-1.860983e-003
-1.699788e-003
-1.530277e-003
-1.354706e-003
-1.174433e-003
-9.902329e-004
-8.026118e-004
-6.120824e-004
-4.193990e-004
-2.257367e-004
-3.281277e-005
1.570506e-004
3.409166e-004
5.152702e-004
6.760864e-004
8.189158e-004
9.389675e-004
1.031174e-003
1.090233e-003
1.110622e-003
1.086626e-003
1.012411e-003
8.822495e-004
6.910119e-004
4.351292e-004
1.142521e-004
-2.661802e-004
-6.914374e-004
-1.133596e-003
-1.548890e-003
-1.879523e-003
-2.063905e-003
-2.056560e-003
-1.851042e-003
-1.491071e-003
-1.057996e-003
-6.398667e-004
-3.023970e-004
-7.574276e-005
4.428424e-005
8.455298e-005
7.853943e-005
5.430526e-005
2.932068e-005
1.114552e-005
8.683738e-007
-3.419617e-006
-4.233848e-006
-3.537271e-006
-2.474664e-006
-1.548128e-006
-8.911185e-007
-4.780718e-007
-2.398730e-007
-1.119605e-007
-4.755315e-008
-1.699077e-008
-3.238713e-009
2.613740e-009
4.745447e-009
9.877044e-009
5.558475e-009
-6.326514e-009
-3.328447e-008
-8.931191e-008
-1.985444e-007
-4.000339e-007
-7.519322e-007
-1.329950e-006
-2.207911e-006
-3.396922e-006
-4.710021e-006
-5.531751e-006
-4.541018e-006
4.217429e-007
1.198562e-005
3.196502e-005
5.894313e-005
8.504918e-005
9.312481e-005
5.664703e-005
-5.529219e-005
-2.679363e-004
-5.882516e-004
-9.958585e-004
-1.441179e-003
-1.851669e-003
-2.148248e-003
-2.267989e-003
-2.181643e-003
-1.897261e-003
-1.450747e-003
-8.911734e-004
-2.683103e-004
3.747556e-004
1.004683e-003
1.598302e-003
2.141656e-003
2.628339e-003
3.057563e-003
3.432264e-003
3.757474e-003
4.039059e-003
4.282851e-003
4.494117e-003
4.677295e-003
4.835916e-003
4.972664e-003
5.089514e-003
5.187927e-003
5.269064e-003
5.334003e-003
5.383934e-003
5.420304e-003
5.444905e-003
5.459882e-003
5.467655e-003
5.470745e-003
5.471494e-003
5.471665e-003
5.471903e-003
5.471003e-003
5.464934e-003
5.445548e-003
5.398899e-003
5.303211e-003
5.126759e-003
4.826574e-003
4.350218e-003
3.644963e-003
2.680301e-003
1.486002e-003
1.920384e-004
-9.680039e-004
-1.732195e-003
-1.951152e-003
-1.689193e-003
-1.175080e-003
-6.474716e-004
-2.494936e-004
-1.935489e-005
7.372171e-005
8.460434e-005
6.130128e-005
3.315074e-005
1.241845e-005
1.013354e-006
-3.489778e-006
-4.198919e-006
-3.389960e-006
-2.290397e-006
-1.384302e-006
-7.698834e-007
-3.985255e-007
-1.919948e-007
-8.488253e-008
-3.287818e-008
-9.309048e-009
5.101792e-010
3.927531e-009
4.639693e-009
-2.974523e-009
-2.356590e-008
-6.933065e-008
-1.624628e-007
-3.400597e-007
-6.596516e-007
-1.200921e-006
-2.051523e-006
-3.250588e-006
-4.645653e-006
-5.618631e-006
-4.704276e-006
6.826577e-007
1.388918e-005
3.725404e-005
6.822499e-005
9.346732e-005
8.300722e-005
-1.009721e-005
-2.379561e-004
-6.313171e-004
-1.163895e-003
-1.724711e-003
-2.118030e-003
-2.125327e-003
-1.621701e-003
-6.523205e-004
5.977281e-004
1.901173e-003
3.076105e-003
4.022161e-003
4.711454e-003
5.161139e-003
5.408603e-003
5.496145e-003
5.463512e-003
5.344871e-003
5.167899e-003
4.953878e-003
4.718317e-003
4.471869e-003
4.221361e-003
3.970803e-003
3.722293e-003
3.476781e-003
3.234661e-003
2.996226e-003
2.761986e-003
2.532867e-003
2.310325e-003
2.096373e-003
1.893558e-003
1.704893e-003
1.533786e-003
1.383969e-003
1.259477e-003
1.164666e-003
1.104314e-003
1.083778e-003
1.109225e-003
1.187892e-003
1.328320e-003
1.540428e-003
1.835203e-003
2.223538e-003
2.713432e-003
3.304216e-003
3.975919e-003
4.671961e-003
5.276044e-003
5.593165e-003
5.363021e-003
4.354184e-003
2.569572e-003
4.551868e-004
-1.207392e-003
-1.861858e-003
-1.619654e-003
-1.003980e-003
-4.397273e-004
-9.022597e-005
5.910802e-005
8.662491e-005
6.410529e-005
3.370966e-005
1.177345e-005
3.467338e-007
-3.741279e-006
-4.098123e-006
-3.133936e-006
-2.026105e-006
-1.176608e-006
-6.292629e-007
-3.123350e-007
-1.430268e-007
-5.889202e-008
-2.014750e-008
-3.926184e-009
1.683340e-009
-5.102590e-009
-1.809506e-008
-5.239578e-008
-1.267314e-007
-2.745474e-007
-5.500169e-007
-1.032586e-006
-1.819720e-006
-2.982048e-006
-4.430434e-006
-5.626990e-006
-5.118499e-006
-8.035605e-008
1.349908e-005
3.879826e-005
7.281781e-005
9.702454e-005
6.662855e-005
-9.107336e-005
-4.528864e-004
-1.037464e-003
-1.711746e-003
-2.119669e-003
-1.777462e-003
-4.558417e-004
1.517229e-003
3.472633e-003
4.869925e-003
5.522512e-003
5.519622e-003
5.062099e-003
4.349262e-003
3.532474e-003
2.709927e-003
1.937919e-003
1.244378e-003
6.394441e-004
1.226027e-004
-3.126789e-004
-6.759193e-004
-9.776325e-004
-1.228073e-003
-1.436513e-003
-1.610907e-003
-1.757805e-003
-1.882428e-003
-1.988823e-003
-2.080056e-003
-2.158423e-003
-2.225641e-003
-2.283030e-003
-2.331663e-003
-2.372496e-003
-2.406451e-003
-2.434474e-003
-2.457554e-003
-2.476695e-003
-2.492866e-003
-2.506893e-003
-2.519306e-003
-2.530104e-003
-2.538398e-003
-2.541856e-003
-2.535832e-003
-2.511978e-003
-2.456071e-003
-2.344742e-003
-2.140958e-003
-1.788953e-003
-1.211589e-003
-3.180432e-004
9.629936e-004
2.604572e-003
4.350692e-003
5.596980e-003
5.505627e-003
3.638083e-003
7.926994e-004
-1.314802e-003
-1.806785e-003
-1.275656e-003
-5.897368e-004
-1.400668e-004
5.103058e-005
8.676662e-005
6.265793e-005
3.090814e-005
9.384739e-006
-8.994983e-007
-4.027456e-006
-3.882666e-006
-2.776181e-006
-1.706097e-006
-9.475990e-007
-4.850360e-007
-2.294360e-007
-9.909092e-008
-3.770411e-008
-1.146792e-008
-2.237016e-009
-2.118491e-008
-4.239909e-008
-9.710711e-008
-2.127315e-007
-4.373230e-007
-8.457558e-007
-1.539057e-006
-2.615040e-006
-4.060841e-006
-5.484351e-006
-5.611385e-006
-1.651897e-006
1.085385e-005
3.621860e-005
7.241622e-005
9.831775e-005
5.637679e-005
-1.535662e-004
-6.359014e-004
-1.376217e-003
-2.031026e-003
-1.814346e-003
-5.780216e-005
2.706140e-003
4.974236e-003
5.736034e-003
5.065721e-003
3.603102e-003
1.962687e-003
5.100625e-004
-6.157138e-004
-1.412101e-003
-1.935853e-003
-2.256309e-003
-2.434292e-003
-2.516311e-003
-2.535585e-003
-2.515028e-003
-2.470136e-003
-2.411229e-003
-2.345043e-003
-2.275857e-003
-2.206276e-003
-2.137794e-003
-2.071193e-003
-2.006828e-003
-1.944826e-003
-1.885230e-003
-1.828086e-003
-1.773509e-003
-1.721715e-003
-1.673043e-003
-1.627958e-003
-1.587053e-003
-1.551047e-003
-1.520784e-003
-1.497239e-003
-1.481533e-003
-1.474962e-003
-1.479042e-003
-1.495565e-003
-1.526681e-003
-1.574976e-003
-1.643550e-003
-1.736018e-003
-1.856330e-003
-2.008123e-003
-2.193049e-003
-2.406927e-003
-2.631640e-003
-2.819319e-003
-2.865073e-003
-2.570733e-003
-1.631136e-003
2.528530e-004
2.970028e-003
5.406032e-003
5.638339e-003
2.969085e-003
-3.654796e-004
-1.772079e-003
-1.418617e-003
-6.564551e-004
-1.480373e-004
5.508238e-005
8.544900e-005
5.700550e-005
2.526595e-005
5.870825e-006
-2.312003e-006
-4.172116e-006
-3.521098e-006
-2.340717e-006
-1.362180e-006
-7.211429e-007
-3.519061e-007
-1.579573e-007
-6.418713e-008
-2.300517e-008
-8.131415e-009
-4.587959e-008
-7.894041e-008
-1.624605e-007
-3.349182e-007
-6.621564e-007
-1.241410e-006
-2.187047e-006
-3.556314e-006
-5.131055e-006
-5.943171e-006
-3.533357e-006
6.607013e-006
2.990777e-005
6.682752e-005
9.809536e-005
6.045916e-005
-1.695297e-004
-7.301197e-004
-1.578521e-003
-2.100524e-003
-9.908800e-004
2.166998e-003
5.200497e-003
5.750791e-003
3.946058e-003
1.385997e-003
-7.058937e-004
-1.968335e-003
-2.538874e-003
-2.672903e-003
-2.576806e-003
-2.379794e-003
-2.152270e-003
-1.928628e-003
-1.723556e-003
-1.541778e-003
-1.383347e-003
-1.246346e-003
-1.128187e-003
-1.026199e-003
-9.378842e-004
-8.610080e-004
-7.936323e-004
-7.341120e-004
-6.810804e-004
-6.334283e-004
-5.902791e-004
-5.509639e-004
-5.149952e-004
-4.820419e-004
-4.519056e-004
-4.244986e-004
-3.998250e-004
-3.779661e-004
-3.590709e-004
-3.433521e-004
-3.310910e-004
-3.226509e-004
-3.185034e-004
-3.192691e-004
-3.257795e-004
-3.391675e-004
-3.610000e-004
-3.934716e-004
-4.396878e-004
-5.040710e-004
-5.929281e-004
-7.151906e-004
-8.832403e-004
-1.113420e-003
-1.424957e-003
-1.833796e-003
-2.332659e-003
-2.839134e-003
-3.087072e-003
-2.488760e-003
-2.706825e-004
3.412065e-003
5.961251e-003
4.380991e-003
3.783767e-004
-1.705322e-003
-1.437454e-003
-6.227148e-004
-1.109113e-004
6.835669e-005
8.094501e-005
4.749475e-005
1.786849e-005
2.099494e-006
-3.462431e-006
-4.052535e-006
-3.023327e-006
-1.868154e-006
-1.027935e-006
-5.174914e-007
-2.400094e-007
-1.019995e-007
-3.964980e-008
-1.652581e-008
-8.171124e-008
-1.309621e-007
-2.532083e-007
-5.002901e-007
-9.581081e-007
-1.743847e-006
-2.963908e-006
-4.560562e-006
-5.922023e-006
-5.146912e-006
1.830897e-006
2.106043e-005
5.617709e-005
9.420470e-005
7.677079e-005
-1.305926e-004
-7.061798e-004
-1.630365e-003
-2.087749e-003
-2.595774e-004
3.785326e-003
6.005091e-003
4.200849e-003
7.388831e-004
-1.744691e-003
-2.715935e-003
-2.736040e-003
-2.369738e-003
-1.922875e-003
-1.516841e-003
-1.184173e-003
-9.229942e-004
-7.212183e-004
-5.657881e-004
-4.455861e-004
-3.519401e-004
-2.783330e-004
-2.199328e-004
-1.731564e-004
-1.353275e-004
-1.044268e-004
-7.891686e-005
-5.761926e-005
-3.962906e-005
-2.425240e-005
-1.096032e-005
6.468275e-007
1.086723e-005
1.992002e-005
2.796341e-005
3.510935e-005
4.143536e-005
4.699373e-005
5.181822e-005
5.592834e-005
5.933114e-005
6.202017e-005
6.397117e-005
6.513393e-005
6.541887e-005
6.467628e-005
6.266389e-005
5.899554e-005
5.305823e-005
4.387607e-005
2.988486e-005
8.555970e-006
-2.423145e-005
-7.523097e-005
-1.555137e-004
-2.830453e-004
-4.861155e-004
-8.062266e-004
-1.294570e-003
-1.983677e-003
-2.785843e-003
-3.232116e-003
-2.140363e-003
1.580999e-003
5.616916e-003
4.897920e-003
5.075963e-004
-1.736395e-003
-1.336396e-003
-4.975428e-004
-4.445978e-005
8.147897e-005
7.118368e-005
3.526607e-005
1.016556e-005
-1.097744e-006
-4.065822e-006
-3.647528e-006
-2.440740e-006
-1.405825e-006
-7.311923e-007
-3.493041e-007
-1.536115e-007
-6.278171e-008
-2.829283e-008
-1.311463e-007
-2.014892e-007
-3.734464e-007
-7.141073e-007
-1.329785e-006
-2.348699e-006
-3.830010e-006
-5.486990e-006
-6.064740e-006
-2.349768e-006