# vtk DataFile Version 3.0
vtk output
ASCII
DATASET STRUCTURED_POINTS
DIMENSIONS 100 100 1
SPACING 1 1 1
ORIGIN 0 0 0
POINT_DATA 10000
SCALARS SFBox_profile double
LOOKUP_TABLE default 
0.000000e+000
0.000000e+000
0.000000e+000
0.000000e+000
0.000000e+000
0.000000e+000
0.000000e+000
0.000000e+000
0.000000e+000
0.000000e+000
0.000000e+000
0.000000e+000
0.000000e+000
0.000000e+000
0.000000e+000
0.000000e+000
0.000000e+000
0.000000e+000
0.000000e+000
0.000000e+000
0.000000e+000
0.000000e+000
0.000000e+000
0.000000e+000
0.000000e+000
0.000000e+000
0.000000e+000
0.000000e+000
0.000000e+000
0.000000e+000
0.000000e+000
0.000000e+000
0.000000e+000
0.000000e+000
0.000000e+000
0.000000e+000
0.000000e+000
0.000000e+000
0.000000e+000
0.000000e+000
0.000000e+000
0.000000e+000
0.000000e+000
0.000000e+000
0.000000e+000
0.000000e+000
0.000000e+000
0.000000e+000
0.000000e+000
0.000000e+000
0.000000e+000
0.000000e+000
0.000000e+000
0.000000e+000
0.000000e+000
0.000000e+000
0.000000e+000
0.000000e+000
0.000000e+000
0.000000e+000
0.000000e+000
0.000000e+000
0.000000e+000
0.000000e+000
0.000000e+000
0.000000e+000
0.000000e+000
0.000000e+000
0.000000e+000
0.000000e+000
0.000000e+000
0.000000e+000
0.000000e+000
0.000000e+000
0.000000e+000
0.000000e+000
0.000000e+000
0.000000e+000
0.000000e+000
0.000000e+000
0.000000e+000
0.000000e+000
0.000000e+000
0.000000e+000
0.000000e+000
0.000000e+000
0.000000e+000
0.000000e+000
0.000000e+000
0.000000e+000
0.000000e+000
0.000000e+000
0.000000e+000
0.000000e+000
0.000000e+000
0.000000e+000
0.000000e+000
0.000000e+000
0.000000e+000
0.000000e+000
1.344766e-010
3.950138e-011
-8.383156e-011
-1.484236e-010
-9.864700e-011
4.105650e-011
1.587097e-010
1.336195e-010
-3.182226e-011
-1.744708e-010
-1.275849e-010
7.120772e-011
1.971564e-010
1.053649e-010
-8.636243e-011
-1.569891e-010
-7.022369e-011
1.164855e-011
-1.335767e-011
-5.297801e-011
6.936085e-012
1.164632e-010
1.445945e-010
7.552208e-011
1.154999e-011
8.846585e-012
1.585465e-011
-1.777774e-011
-6.050107e-011
-6.186231e-011
-3.470836e-011
-2.821839e-011
-5.217289e-011
-7.186152e-011
-6.482397e-011
-4.605685e-011
-3.705883e-011
-3.737822e-011
-3.485773e-011
-2.653091e-011
-1.836875e-011
-1.319175e-011
-8.726739e-012
-4.474866e-012
-3.332023e-012
-6.665453e-012
-1.216788e-011
-1.718604e-011
-2.142230e-011
-2.555327e-011
-2.921812e-011
-3.172382e-011
-3.368886e-011
-3.662473e-011
-4.122339e-011
-4.701901e-011
-5.351491e-011
-6.060968e-011
-6.786646e-011
-7.467584e-011
-8.214865e-011
-9.377391e-011
-1.118474e-010
-1.329482e-010
-1.501392e-010
-1.617013e-010
-1.735526e-010
-1.876787e-010
-1.920640e-010
-1.715703e-010
-1.264690e-010
-6.567928e-011
1.831468e-011
1.429915e-010
2.906605e-010
3.960281e-010
4.063084e-010
3.306808e-010
1.931476e-010
-2.966656e-011
-3.429544e-010
-6.105448e-010
-6.119995e-010
-2.886004e-010
1.495514e-010
4.439741e-010
5.360428e-010
4.849361e-010
2.395249e-010
-2.703762e-010
-7.923817e-010
-7.871701e-010
-4.517537e-011
8.521718e-010
9.928559e-010
1.490859e-010
-8.562530e-010
-9.735844e-010
-7.188818e-011
8.912942e-010
-1.339772e-010
-2.674432e-011
9.819430e-011
1.362010e-010
5.355162e-011
-7.253534e-011
-1.186469e-010
-4.271027e-011
6.506564e-011
8.434711e-011
5.950026e-012
-6.818163e-011
-6.327626e-011
-1.395363e-011
1.413306e-011
2.516275e-011
6.028634e-011
1.028633e-010
8.989061e-011
1.122671e-011
-6.874373e-011
-9.925662e-011
-9.781232e-011
-9.798737e-011
-9.200312e-011
-5.706495e-011
-4.952304e-012
3.104598e-011
4.206970e-011
4.667899e-011
5.674074e-011
6.581374e-011
6.880441e-011
7.147239e-011
7.688022e-011
7.779828e-011
6.860531e-011
5.493483e-011
4.545397e-011
4.042871e-011
3.412434e-011
2.456585e-011
1.551441e-011
1.052739e-011
9.540609e-012
1.118054e-011
1.510857e-011
2.111169e-011
2.785475e-011
3.387187e-011
3.903740e-011
4.422586e-011
5.006539e-011
5.676885e-011
6.470938e-011
7.417666e-011
8.455687e-011
9.468212e-011
1.045508e-010
1.161673e-010
1.317570e-010
1.511308e-010
1.717937e-010
1.918792e-010
2.113732e-010
2.291399e-010
2.404130e-010
2.394820e-010
2.227945e-010
1.853390e-010
1.164098e-010
7.469544e-012
-1.333716e-010
-2.811325e-010
-4.082998e-010
-4.876434e-010
-4.793447e-010
-3.402681e-010
-7.153856e-011
2.496837e-010
5.067126e-010
6.084004e-010
5.098393e-010
2.077069e-010
-2.211700e-010
-5.804452e-010
-6.408128e-010
-3.352740e-010
1.467475e-010
4.969929e-010
5.177918e-010
2.273226e-010
-1.855600e-010
-4.581737e-010
-3.860406e-010
3.083655e-012
3.908214e-010
4.080899e-010
2.056100e-011
-3.838855e-010
-1.742335e-010
-5.353370e-011
1.124470e-010
2.045039e-010
1.293406e-010
-7.791106e-011
-2.338351e-010
-1.634248e-010
8.558894e-011
2.476127e-010
1.322112e-010
-1.289063e-010
-2.299596e-010
-7.318098e-011
1.253359e-010
1.445316e-010
3.375074e-011
-1.750500e-011
2.650099e-011
3.524260e-011
-5.085279e-011
-1.295551e-010
-1.056113e-010
-2.491956e-011
1.665452e-011
1.178430e-011
1.881583e-011
5.220725e-011
6.877343e-011
4.635084e-011
1.669770e-011
1.446954e-011
3.291817e-011
4.354382e-011
3.541075e-011
1.987400e-011
9.493199e-012
6.308809e-012
6.518109e-012
6.698884e-012
5.029870e-012
1.511826e-012
-1.637863e-012
-1.689180e-012
1.992848e-012
7.722964e-012
1.350272e-011
1.832201e-011
2.175405e-011
2.337735e-011
2.297030e-011
2.083707e-011
1.773868e-011
1.470385e-011
1.281569e-011
1.269477e-011
1.383183e-011
1.461684e-011
1.365614e-011
1.160385e-011
1.160793e-011
1.730368e-011
2.967317e-011
4.588035e-011
6.211449e-011
7.836282e-011
9.927344e-011
1.280157e-010
1.593298e-010
1.817295e-010
1.868801e-010
1.708634e-010
1.233043e-010
2.640053e-011
-1.203259e-010
-2.779267e-010
-3.878531e-010
-4.124811e-010
-3.353653e-010
-1.319967e-010
1.996681e-010
5.473053e-010
6.880663e-010
4.754465e-010
1.382223e-011
-4.277809e-010
-6.600244e-010
-6.368063e-010
-3.185247e-010
3.000056e-010
9.197002e-010
9.455980e-010
1.018146e-010
-9.915977e-010
-1.229531e-009
-2.330875e-010
1.046316e-009
1.244143e-009
1.108154e-010
-1.136917e-009
1.383022e-010
6.682534e-013
-1.258518e-010
-1.076097e-010
2.634090e-011
1.072571e-010
3.281627e-011
-8.650351e-011
-6.877492e-011
7.097630e-011
1.245244e-010
1.166188e-012
-1.162346e-010
-4.201647e-011
1.128869e-010
9.581807e-011
-9.994573e-011
-2.182045e-010
-1.164285e-010
5.160927e-011
9.766469e-011
5.878944e-011
7.519510e-011
1.441720e-010
1.482824e-010
6.092439e-011
-2.159733e-011
-3.768695e-011
-3.230566e-011
-5.742299e-011
-9.164124e-011
-9.327677e-011
-7.236078e-011
-6.748432e-011
-8.404277e-011
-9.353998e-011
-7.991559e-011
-5.664761e-011
-4.109838e-011
-3.371261e-011
-2.604725e-011
-1.543630e-011
-5.425370e-012
1.302276e-012
4.661961e-012
4.560248e-012
5.829729e-013
-6.232442e-012
-1.354998e-011
-1.982104e-011
-2.531039e-011
-3.115084e-011
-3.817040e-011
-4.672480e-011
-5.688939e-011
-6.817373e-011
-7.945091e-011
-9.019230e-011
-1.020944e-010
-1.185645e-010
-1.413851e-010
-1.679748e-010
-1.936564e-010
-2.175544e-010
-2.436892e-010
-2.729329e-010
-2.960103e-010
-3.001469e-010
-2.809291e-010
-2.376690e-010
-1.568216e-010
-1.789306e-011
1.723146e-010
3.668018e-010
5.153347e-010
5.936737e-010
5.705289e-010
3.809542e-010
4.903433e-012
-4.268611e-010
-6.902158e-010
-6.692938e-010
-4.322965e-010
-8.077135e-011
3.462118e-010
7.162460e-010
7.126485e-010
1.633783e-010
-5.584049e-010
-7.664313e-010
-2.413482e-010
4.336857e-010
5.283349e-010
2.769697e-011
-4.023423e-010
-2.686771e-010
1.889605e-010
3.732456e-010
7.751552e-011
-3.098723e-010
2.800774e-010
5.826144e-011
-2.186358e-010
-3.130784e-010
-1.093652e-010
2.152458e-010
3.174010e-010
7.670185e-011
-2.248728e-010
-2.368987e-010
1.311824e-011
1.829466e-010
9.919098e-011
-4.877635e-011
-5.339294e-011
9.537522e-012
-2.589856e-011
-1.089031e-010
-7.065127e-011
7.566986e-011
1.510125e-010
8.913971e-011
7.096935e-012
-5.639205e-012
-2.050978e-012
-4.559007e-011
-9.676582e-011
-9.232018e-011
-4.763806e-011
-1.741296e-011
-1.104034e-011
-2.445085e-012
1.195521e-011
1.467487e-011
8.354156e-012
1.482036e-011
3.777701e-011
5.595381e-011
5.493568e-011
4.489839e-011
4.220242e-011
4.828861e-011
5.353205e-011
5.249101e-011
4.768074e-011
4.269949e-011
3.833492e-011
3.482299e-011
3.362248e-011
3.588641e-011
4.106666e-011
4.785579e-011
5.541936e-011
6.290682e-011
6.867442e-011
7.153832e-011
7.297631e-011
7.665784e-011
8.445387e-011
9.316151e-011
9.674436e-011
9.265544e-011
8.426952e-011
7.494201e-011
6.144656e-011
3.731239e-011
1.090187e-012
-4.528177e-011
-1.049484e-010
-1.807290e-010
-2.571244e-010
-3.014468e-010
-2.906019e-010
-2.209143e-010
-8.423395e-011
1.316801e-010
3.854374e-010
5.535035e-010
5.158672e-010
2.671625e-010
-9.754123e-011
-4.745440e-010
-7.453421e-010
-7.155343e-010
-2.398264e-010
5.025907e-010
9.982317e-010
8.316830e-010
1.043383e-010
-6.603354e-010
-9.652626e-010
-6.345980e-010
1.514384e-010
8.868681e-010
9.429818e-010
1.285937e-010
-8.802508e-010
-1.036119e-009
-9.110132e-011
9.675164e-010
-8.061253e-011
4.953912e-011
9.768426e-011
-2.526457e-011
-1.329380e-010
-2.631993e-011
1.764553e-010
1.628144e-010
-1.046397e-010
-2.725517e-010
-8.905659e-011
1.999702e-010
1.915553e-010
-8.122641e-011
-2.121104e-010
-3.106934e-011
1.864404e-010
1.748289e-010
3.127955e-011
-2.696943e-011
-8.748683e-012
-5.548132e-011
-1.611935e-010
-1.918229e-010
-1.116876e-010
-2.008744e-011
1.555229e-011
3.208051e-011
7.262799e-011
1.155222e-010
1.250069e-010
1.089793e-010
9.792784e-011
1.024263e-010
1.131614e-010
1.213361e-010
1.225521e-010
1.135572e-010
9.759945e-011
8.590655e-011
8.580499e-011
9.203594e-011
9.505041e-011
9.360069e-011
9.421314e-011
1.012809e-010
1.126557e-010
1.239541e-010
1.330412e-010
1.396963e-010
1.438282e-010
1.458296e-010
1.474850e-010
1.505863e-010
1.545059e-010
1.564796e-010
1.551112e-010
1.531460e-010
1.558933e-010
1.664635e-010
1.830089e-010
2.015703e-010
2.213885e-010
2.457353e-010
2.771826e-010
3.138618e-010
3.500792e-010
3.767460e-010
3.799967e-010
3.434870e-010
2.537760e-010
1.012236e-010
-1.174675e-010
-3.802169e-010
-6.197120e-010
-7.422244e-010
-6.791694e-010
-4.150945e-010
1.614914e-011
5.103505e-010
8.638413e-010
8.551976e-010
4.373445e-010
-1.769412e-010
-6.672058e-010
-8.055683e-010
-5.064278e-010
1.439879e-010
7.616316e-010
7.720696e-010
6.367404e-012
-8.378906e-010
-7.729197e-010
2.448792e-010
1.042102e-009
5.800274e-010
-6.532556e-010
-1.134672e-009
-2.180927e-010
9.876113e-010
-4.475915e-010
-9.926581e-012
4.139776e-010
3.883354e-010
-4.692152e-011
-3.853787e-010
-2.453602e-010
1.424569e-010
2.572637e-010
1.689345e-011
-1.559705e-010
-2.185866e-011
1.305826e-010
1.325619e-011
-1.693441e-010
-8.115807e-011
1.690211e-010
2.036492e-010
-2.313069e-011
-1.911073e-010
-1.293491e-010
-1.016379e-011
4.952204e-013
-1.864583e-011
4.960215e-011
1.454286e-010
1.520545e-010
8.585335e-011
4.321389e-011
4.407818e-011
3.491810e-011
8.509886e-013
-1.534809e-011
7.803923e-012
3.882159e-011
4.521147e-011
3.460113e-011
3.371355e-011
5.266094e-011
8.171785e-011
1.086190e-010
1.283645e-010
1.423179e-010
1.550731e-010
1.707602e-010
1.891291e-010
2.055588e-010
2.155549e-010
2.181150e-010
2.144066e-010
2.049933e-010
1.899236e-010
1.707940e-010
1.508563e-010
1.323368e-010
1.140868e-010
9.225763e-011
6.366514e-011
2.932695e-011
-5.178070e-012
-3.407800e-011
-5.680309e-011
-7.760710e-011
-9.832198e-011
-1.125368e-010
-1.092698e-010
-8.192027e-011
-2.989145e-011
4.934364e-011
1.619564e-010
3.013524e-010
4.310070e-010
4.956380e-010
4.536031e-010
2.899393e-010
7.133860e-012
-3.546909e-010
-6.684426e-010
-7.459488e-010
-4.843392e-010
2.083857e-011
5.477916e-010
8.874091e-010
8.557914e-010
3.085078e-010
-6.118505e-010
-1.276437e-009
-9.923801e-010
1.587331e-010
1.164355e-009
1.082882e-009
8.920425e-011
-7.675330e-010
-7.656587e-010
-1.556865e-010
3.612851e-010
4.287366e-010
1.849934e-010
-9.224469e-011
-2.490016e-010
-1.616310e-010
-7.820463e-011
1.393500e-010
3.014194e-010
1.147656e-010
-2.965043e-010
-3.967773e-010
1.617353e-011
4.217764e-010
2.766074e-010
-1.836194e-010
-3.058045e-010
3.522988e-012
2.176548e-010
6.141617e-011
-1.397820e-010
-9.210229e-011
2.112918e-011
-4.013573e-011
-1.368282e-010
-3.569815e-011
1.718954e-010
2.372180e-010
1.440277e-010
6.473463e-011
5.411407e-011
2.185031e-011
-5.683288e-011
-1.007772e-010
-7.491185e-011
-3.550524e-011
-1.960882e-011
2.708963e-012
5.202347e-011
9.718378e-011
1.128389e-010
1.233434e-010
1.625364e-010
2.242332e-010
2.765973e-010
3.053608e-010
3.224717e-010
3.422484e-010
3.656783e-010
3.860095e-010
3.986458e-010
4.034593e-010
4.029204e-010
4.005578e-010
3.991006e-010
3.982984e-010
3.950237e-010
3.861851e-010
3.715434e-010
3.539488e-010
3.369282e-010
3.208777e-010
3.008635e-010
2.699429e-010
2.266729e-010
1.776829e-010
1.294203e-010
7.832543e-011
1.430105e-011
-6.539698e-011
-1.523189e-010
-2.390846e-010
-3.249568e-010
-3.995472e-010
-4.294890e-010
-3.762555e-010
-2.237369e-010
2.247209e-011
3.440522e-010
6.806893e-010
8.991720e-010
8.524861e-010
5.026129e-010
-4.341005e-011
-6.152984e-010
-1.022601e-009
-1.026396e-009
-4.616672e-010
4.578723e-010
1.097136e-009
9.229556e-010
8.439172e-011
-7.030278e-010
-8.489122e-010
-3.301221e-010
4.314371e-010
8.553853e-010
4.989904e-010
-4.707257e-010
-1.100005e-009
-5.209819e-010
7.999062e-010
1.298048e-009
2.322777e-010
-1.170419e-009
5.374379e-010
-1.154535e-010
-5.432011e-010
-2.402153e-010
2.926153e-010
3.135063e-010
-9.821797e-011
-2.411467e-010
7.433346e-011
2.587599e-010
-3.883207e-011
-3.319771e-010
-1.185436e-010
2.781930e-010
2.531586e-010
-1.143458e-010
-2.615927e-010
-5.085177e-011
1.369752e-010
9.709005e-011
2.971805e-011
7.689170e-011
9.641401e-011
-1.973830e-011
-1.449090e-010
-1.437465e-010
-6.285539e-011
-6.601447e-013
4.531758e-011
1.178019e-010
2.024459e-010
2.630581e-010
3.031923e-010
3.429160e-010
3.814251e-010
4.158746e-010
4.611881e-010
5.242338e-010
5.835029e-010
6.164747e-010
6.310044e-010
6.523608e-010
6.896461e-010
7.295200e-010
7.574887e-010
7.728263e-010
7.831232e-010
7.935789e-010
8.048104e-010
8.161713e-010
8.270453e-010
8.355935e-010
8.382406e-010
8.312384e-010
8.137639e-010
7.904053e-010
7.690028e-010
7.532269e-010
7.377537e-010
7.143481e-010
6.832372e-010
6.537923e-010
6.315560e-010
6.099387e-010
5.790983e-010
5.360509e-010
4.771286e-010
3.863693e-010
2.442716e-010
4.683307e-011
-1.910154e-010
-4.376001e-010
-6.306017e-010
-6.766408e-010
-5.049775e-010
-1.319853e-010
3.410883e-010
7.697107e-010
9.699688e-010
7.477115e-010
7.050602e-011
-7.532935e-010
-1.197353e-009
-9.245383e-010
-6.127058e-011
8.931206e-010
1.325593e-009
8.154581e-010
-4.332132e-010
-1.409980e-009
-1.068186e-009
3.708500e-010
1.334985e-009
6.930987e-010
-6.987311e-010
-1.019799e-009
6.396253e-011
9.487988e-010
3.894377e-010
-7.289924e-010
6.690201e-010
-4.659601e-011
-6.974734e-010
-5.415445e-010
2.605403e-010
7.207912e-010
2.650678e-010
-4.481313e-010
-4.623282e-010
9.435687e-011
3.197472e-010
-8.516816e-012
-2.186602e-010
2.359098e-011
2.243301e-010
2.550092e-011
-1.894392e-010
-3.060823e-011
2.333843e-010
1.820589e-010
-8.321259e-011
-1.983157e-010
-1.184556e-010
-5.313514e-011
-4.847978e-011
2.570711e-011
1.893504e-010
3.176215e-010
3.512832e-010
3.597514e-010
4.045435e-010
4.641017e-010
5.027075e-010
5.324819e-010
5.859300e-010
6.692002e-010
7.601558e-010
8.347384e-010
8.867693e-010
9.300967e-010
9.845695e-010
1.056270e-009
1.131695e-009
1.193135e-009
1.236694e-009
1.271934e-009
1.306904e-009
1.338775e-009
1.358871e-009
1.362331e-009
1.351272e-009
1.331161e-009
1.305660e-009
1.273386e-009
1.228898e-009
1.168849e-009
1.098165e-009
1.027669e-009
9.632971e-010
9.000154e-010
8.303800e-010
7.577450e-010
6.954845e-010
6.533671e-010
6.317190e-010
6.304234e-010
6.549706e-010
7.071673e-010
7.712266e-010
8.083546e-010
7.628458e-010
5.831990e-010
2.540029e-010
-1.854131e-010
-6.452181e-010
-9.878480e-010
-1.037973e-009
-6.668557e-010
5.997722e-011
8.350044e-010
1.263128e-009
1.081515e-009
2.918546e-010
-7.536572e-010
-1.365274e-009
-9.354573e-010
3.300688e-010
1.289815e-009
9.452889e-010
-3.425466e-010
-1.161724e-009
-6.878826e-010
4.139816e-010
9.203468e-010
4.632758e-010
-3.050007e-010
-6.415186e-010
-3.966466e-010
1.004432e-010
4.580648e-010
-1.778454e-010
1.650179e-010
1.573889e-010
-2.043668e-010
-1.916380e-010
2.749235e-010
3.622169e-010
-2.118405e-010
-5.585438e-010
-6.641652e-011
5.292513e-010
3.381145e-010
-2.635330e-010
-3.525755e-010
4.921987e-011
2.140730e-010
-2.892926e-012
-1.050909e-010
5.073772e-011
9.362651e-011
-9.192783e-011
-1.701929e-010
2.886826e-011
2.602049e-010
3.156915e-010
2.992490e-010
3.488049e-010
4.068032e-010
3.899801e-010
3.641571e-010
4.265857e-010
5.528637e-010
6.633382e-010
7.543330e-010
8.760554e-010
1.030084e-009
1.164322e-009
1.253180e-009
1.327619e-009
1.423591e-009
1.536211e-009
1.634281e-009
1.699083e-009
1.737372e-009
1.766361e-009
1.796211e-009
1.824954e-009
1.844015e-009
1.846528e-009
1.831638e-009
1.803293e-009
1.767426e-009
1.730230e-009
1.695369e-009
1.659512e-009
1.612032e-009
1.543554e-009
1.456101e-009
1.360816e-009
1.262705e-009
1.152075e-009
1.017058e-009
8.611953e-010
7.000266e-010
5.422025e-010
3.867077e-010
2.441772e-010
1.512818e-010
1.527303e-010
2.680526e-010
4.784539e-010
7.368098e-010
9.692546e-010
1.061979e-009
8.859260e-010
3.932632e-010
-2.937432e-010
-9.131219e-010
-1.183751e-009
-9.048290e-010
-6.410392e-011
9.826355e-010
1.515507e-009
9.725229e-010
-3.600521e-010
-1.406061e-009
-1.285858e-009
-1.632481e-010
9.778138e-010
1.228639e-009
4.152853e-010
-7.626648e-010
-1.155238e-009
-2.409021e-010
1.005150e-009
9.839206e-010
-3.995922e-010
-1.309358e-009
-4.130375e-010
1.096033e-009
-1.120631e-009
3.530342e-010
1.190184e-009
3.595012e-010
-7.753809e-010
-6.405532e-010
2.837034e-010
4.925838e-010
-1.046376e-010
-3.091736e-010
1.797079e-010
3.775349e-010
-1.171621e-010
-4.504843e-010
-8.333901e-011
3.301737e-010
1.641482e-010
-1.963556e-010
-1.745666e-010
7.856847e-011
1.572042e-010
1.244768e-010
2.331222e-010
3.955389e-010
3.882170e-010
2.739469e-010
2.669083e-010
3.877356e-010
5.188065e-010
6.481378e-010
8.426491e-010
1.079587e-009
1.274994e-009
1.421159e-009
1.570001e-009
1.720001e-009
1.820984e-009
1.869172e-009
1.914371e-009
1.976174e-009
2.015157e-009
1.995193e-009
1.931277e-009
1.862714e-009
1.807094e-009
1.755743e-009
1.698788e-009
1.639973e-009
1.591219e-009
1.561459e-009
1.551190e-009
1.554924e-009
1.568870e-009
1.596468e-009
1.643845e-009
1.707657e-009
1.770682e-009
1.815327e-009
1.840408e-009
1.855900e-009
1.859535e-009
1.830524e-009
1.753156e-009
1.633483e-009
1.479537e-009
1.276458e-009
1.001694e-009
6.627564e-010
3.038431e-010
-1.895483e-011
-2.444110e-010
-2.924385e-010
-9.078514e-011
3.465580e-010
8.769075e-010
1.280288e-009
1.339284e-009
8.970086e-010
-2.633772e-011
-1.064076e-009
-1.566632e-009
-1.084820e-009
1.303354e-010
1.225956e-009
1.405464e-009
5.147792e-010
-8.151034e-010
-1.471358e-009
-6.962451e-010
9.088789e-010
1.582173e-009
3.778070e-010
-1.310292e-009
-1.291151e-009
3.841772e-010
1.352353e-009
3.414761e-010
-9.668252e-010
-5.908445e-010
6.831557e-010
-9.066130e-010
2.073006e-010
1.047367e-009
5.161159e-010
-7.269955e-010
-9.686028e-010
1.344908e-010
9.576874e-010
3.702982e-010
-5.760755e-010
-4.835614e-010
2.116115e-010
2.881084e-010
-1.517893e-010
-1.696833e-010
2.179520e-010
2.442793e-010
-1.171398e-010
-1.922508e-010
1.494302e-010
3.785080e-010
2.775502e-010
1.681421e-010
2.453163e-010
3.560863e-010
4.227763e-010
5.844917e-010
8.944888e-010
1.221247e-009
1.470727e-009
1.674222e-009
1.854648e-009
1.976838e-009
2.029493e-009
2.036208e-009
1.991532e-009
1.870218e-009
1.684662e-009
1.466310e-009
1.206335e-009
8.724159e-010
4.754116e-010
7.241673e-011
-2.955492e-010
-6.343351e-010
-9.625262e-010
-1.272907e-009
-1.535793e-009
-1.724032e-009
-1.825421e-009
-1.840101e-009
-1.776023e-009
-1.644432e-009
-1.451330e-009
-1.191929e-009
-8.606640e-010
-4.709475e-010
-5.777820e-011
3.470577e-010
7.353228e-010
1.106759e-009
1.442184e-009
1.712472e-009
1.911679e-009
2.057289e-009
2.152911e-009
2.171572e-009
2.079761e-009
1.854840e-009
1.476941e-009
9.414147e-010
3.048816e-010
-2.969598e-010
-6.910299e-010
-7.206140e-010
-2.981323e-010
4.907963e-010
1.288454e-009
1.574560e-009
1.028754e-009
-1.527021e-010
-1.295886e-009
-1.619838e-009
-7.510350e-010
8.156770e-010
1.785956e-009
1.123490e-009
-6.418071e-010
-1.649829e-009
-7.994551e-010
8.023991e-010
1.207371e-009
1.311471e-010
-8.596796e-010
-6.065617e-010
2.714016e-010
5.887374e-010
2.147185e-010
-1.659807e-010
-2.494593e-010
5.502756e-010
-3.447821e-010
-4.941207e-010
2.070530e-010
3.188453e-010
-2.851388e-010
-2.657764e-010
4.613246e-010
4.773969e-010
-4.191595e-010
-7.304527e-010
6.440878e-011
6.419126e-010
2.084445e-010
-3.144157e-010
-1.231631e-010
2.330037e-010
1.381303e-010
-3.802547e-011
1.501051e-010
3.985317e-010
3.415400e-010
2.276674e-010
4.191767e-010
8.160070e-010
1.146687e-009
1.398528e-009
1.675461e-009
1.927672e-009
2.040361e-009
2.012093e-009
1.903885e-009
1.716154e-009
1.395996e-009
9.035515e-010
2.311663e-010
-6.075253e-010
-1.593309e-009
-2.720834e-009
-3.990621e-009
-5.368939e-009
-6.778898e-009
-8.150185e-009
-9.459127e-009
-1.070332e-008
-1.185408e-008
-1.285354e-008
-1.365011e-008
-1.421893e-008
-1.454863e-008
-1.462337e-008
-1.442662e-008
-1.395838e-008
-1.323988e-008
-1.229746e-008
-1.114927e-008
-9.819177e-009
-8.361816e-009
-6.856955e-009
-5.372790e-009
-3.950103e-009
-2.628554e-009
-1.464175e-009
-4.995885e-010
2.698207e-010
8.825148e-010
1.375453e-009
1.773255e-009
2.088698e-009
2.305741e-009
2.365718e-009
2.184384e-009
1.690601e-009
8.833680e-010
-9.034297e-011
-9.061746e-010
-1.180526e-009
-7.046668e-010
3.629706e-010
1.463355e-009
1.832749e-009
1.002826e-009
-6.107355e-010
-1.737683e-009
-1.317230e-009
3.005500e-010
1.532315e-009
1.177771e-009
-3.194662e-010
-1.386383e-009
-9.563865e-010
4.756796e-010
1.333472e-009
6.127907e-010
-8.404109e-010
-1.161277e-009
1.006652e-010
1.172181e-009
4.951935e-010
-9.070264e-010
1.859687e-009
-8.616295e-010
-2.006147e-009
-1.127803e-010
1.575448e-009
6.701529e-010
-9.025248e-010
-6.833543e-010
4.151897e-010
3.790347e-010
-3.399159e-010
-1.889276e-010
4.765508e-010
3.294959e-010
-3.606238e-010
-3.783893e-010
2.180061e-010
4.390427e-010
1.791183e-010
1.303541e-010
4.342741e-010
6.635399e-010
7.646826e-010
1.057603e-009
1.536540e-009
1.870511e-009
1.948248e-009
1.933134e-009
1.878308e-009
1.637048e-009
1.101080e-009
2.800346e-010
-8.465628e-010
-2.390693e-009
-4.442510e-009
-6.983492e-009
-9.940230e-009
-1.327032e-008
-1.695244e-008
-2.091240e-008
-2.500805e-008
-2.909953e-008
-3.310294e-008
-3.695682e-008
-4.056161e-008
-4.378006e-008
-4.648997e-008
-4.861823e-008
-5.012571e-008
-5.097467e-008
-5.111535e-008
-5.049980e-008
-4.911002e-008
-4.697870e-008
-4.418146e-008
-4.080558e-008
-3.693539e-008
-3.267830e-008
-2.819162e-008
-2.365848e-008
-1.923801e-008
-1.505870e-008
-1.125108e-008
-7.947932e-009
-5.236428e-009
-3.126040e-009
-1.564864e-009
-4.641897e-010
2.983836e-010
8.727637e-010
1.397036e-009
1.929238e-009
2.391039e-009
2.583482e-009
2.293779e-009
1.435987e-009
1.695424e-010
-1.031694e-009
-1.490574e-009
-7.811811e-010
7.164278e-010
1.853412e-009
1.615473e-009
1.050968e-010
-1.443781e-009
-1.685581e-009
-3.514326e-010
1.333804e-009
1.589827e-009
4.694048e-012
-1.578588e-009
-1.065274e-009
9.175566e-010
1.547772e-009
-1.106861e-010
-1.508429e-009
-5.113603e-010
1.160257e-009
7.690699e-010
-8.778116e-010
1.510959e-009
-6.822703e-010
-1.772695e-009
-1.851542e-010
1.631234e-009
9.183837e-010
-1.116277e-009
-1.301362e-009
4.023686e-010
1.166695e-009
1.275410e-010
-6.603559e-010
-1.323976e-010
3.668136e-010
-6.339763e-012
-2.660549e-010
2.158029e-010
6.285819e-010
4.359974e-010
2.822201e-010
6.784755e-010
1.217150e-009
1.481573e-009
1.655227e-009
1.921829e-009
2.053294e-009
1.833172e-009
1.327719e-009
5.501813e-010
-7.610922e-010
-2.894578e-009
-5.957471e-009
-1.000415e-008
-1.516067e-008
-2.150867e-008
-2.896781e-008
-3.738102e-008
-4.663013e-008
-5.658650e-008
-6.701300e-008
-7.760666e-008
-8.811526e-008
-9.834347e-008
-1.080623e-007
-1.169838e-007
-1.248367e-007
-1.314247e-007
-1.366036e-007
-1.402370e-007
-1.421966e-007
-1.423857e-007
-1.407475e-007
-1.372632e-007
-1.319696e-007
-1.249847e-007
-1.164998e-007
-1.067416e-007
-9.596432e-008
-8.448543e-008
-7.269488e-008
-6.099358e-008
-4.973048e-008
-3.920894e-008
-2.971537e-008
-2.149266e-008
-1.468429e-008
-9.325323e-009
-5.373839e-009
-2.715807e-009
-1.131370e-009
-2.851783e-010
2.104913e-010
6.883127e-010
1.334077e-009
2.114571e-009
2.720245e-009
2.652542e-009
1.603925e-009
-8.738527e-011
-1.454166e-009
-1.570219e-009
-3.316385e-010
1.323994e-009
1.974057e-009
8.522398e-010
-1.146199e-009
-1.929666e-009
-4.774926e-010
1.535666e-009
1.546871e-009
-4.023059e-010
-1.572290e-009
-4.691699e-010
1.024662e-009
7.278353e-010
-5.219320e-010
-6.195779e-010
2.669169e-010
4.065295e-010
-2.471704e-010
-5.276318e-010
3.712772e-010
3.786902e-010
-2.551561e-010
-5.187055e-011
3.881372e-010
-1.941079e-010
-7.314933e-010
1.188682e-010
1.000811e-009
2.616076e-010
-8.696618e-010
-5.306025e-010
5.194553e-010
5.954503e-010
3.901667e-011
1.123770e-010
6.456918e-010
7.814079e-010
7.163696e-010
1.107445e-009
1.750026e-009
2.035809e-009
1.963220e-009
1.825111e-009
1.453000e-009
3.814961e-010
-1.661962e-009
-4.873826e-009
-9.666737e-009
-1.650762e-008
-2.564357e-008
-3.717215e-008
-5.119861e-008
-6.774976e-008
-8.664740e-008
-1.075848e-007
-1.302314e-007
-1.541743e-007
-1.788568e-007
-2.036785e-007
-2.281056e-007
-2.516271e-007
-2.736778e-007
-2.936965e-007
-3.112309e-007
-3.259304e-007
-3.374593e-007
-3.454739e-007
-3.496867e-007
-3.499250e-007
-3.461188e-007
-3.382575e-007
-3.263906e-007
-3.106869e-007
-2.914847e-007
-2.692664e-007
-2.446040e-007
-2.181601e-007
-1.907197e-007
-1.631492e-007
-1.362820e-007
-1.108472e-007
-8.747223e-008
-6.666968e-008
-4.877531e-008
-3.391955e-008
-2.207832e-008
-1.313170e-008
-6.864316e-009
-2.939390e-009
-8.980711e-010
-1.677660e-010
-6.389486e-011
1.198371e-010
8.335180e-010
1.957215e-009
2.810653e-009
2.626781e-009
1.196923e-009
-7.597736e-010
-1.861718e-009
-1.108725e-009
9.101374e-010
2.144213e-009
1.150897e-009
-1.004187e-009
-1.798664e-009
-3.929064e-010
1.290927e-009
1.154745e-009
-3.843640e-010
-1.213102e-009
-4.156030e-010
7.661590e-010
8.117066e-010
-1.596673e-010
-7.743090e-010
-2.817316e-010
5.507398e-010
-2.625004e-009
1.606132e-009
2.727587e-009
-5.794165e-010
-2.294368e-009
-1.404964e-010
1.533589e-009
3.661039e-010
-7.774457e-010
-1.111096e-010
4.092812e-010
-2.404416e-010
-4.040471e-010
4.905654e-010
8.723601e-010
2.590805e-010
2.254443e-011
6.969381e-010
1.309869e-009
1.424230e-009
1.645651e-009
2.131634e-009
2.252385e-009
1.651219e-009
4.046128e-010
-1.808908e-009
-5.844618e-009
-1.248614e-008
-2.228593e-008
-3.587664e-008
-5.396705e-008
-7.705067e-008
-1.053501e-007
-1.389349e-007
-1.776744e-007
-2.211256e-007
-2.685827e-007
-3.191734e-007
-3.718571e-007
-4.254529e-007
-4.787740e-007
-5.307011e-007
-5.801312e-007
-6.259759e-007
-6.672743e-007
-7.032481e-007
-7.332179e-007
-7.565233e-007
-7.725560e-007
-7.808390e-007
-7.810573e-007
-7.730434e-007
-7.567554e-007
-7.322787e-007
-6.998815e-007
-6.601052e-007
-6.137948e-007
-5.620390e-007
-5.061180e-007
-4.475220e-007
-3.879431e-007
-3.291447e-007
-2.727911e-007
-2.203491e-007
-1.730256e-007
-1.316664e-007
-9.666928e-008
-6.800308e-008
-4.531379e-008
-2.804002e-008
-1.552302e-008
-7.108986e-009
-2.175876e-009
-2.646316e-011
2.658412e-010
-1.457588e-010
-1.693691e-010
7.396006e-010
2.194123e-009
3.024176e-009
2.205662e-009
3.808132e-011
-1.729328e-009
-1.463830e-009
4.935763e-010
1.959027e-009
1.250024e-009
-8.219613e-010
-1.787456e-009
-4.773919e-010
1.378641e-009
1.263753e-009
-6.291479e-010
-1.481501e-009
-9.965812e-012
1.410488e-009
4.715870e-010
-1.213488e-009
-7.756764e-010
9.868959e-010
-2.888157e-009
1.889418e-009
3.158597e-009
-8.604889e-010
-3.078899e-009
-1.155801e-010
2.590909e-009
8.417625e-010
-1.754310e-009
-1.061438e-009
9.245840e-010
8.732117e-010
-2.094620e-010
-4.464880e-011
7.048977e-010
6.045009e-010
3.655679e-010
1.046517e-009
1.966948e-009
2.194567e-009
2.059048e-009
1.961830e-009
1.225992e-009
-1.114254e-009
-5.610825e-009
-1.302249e-008
-2.475943e-008
-4.235507e-008
-6.705068e-008
-1.000092e-007
-1.424155e-007
-1.951518e-007
-2.585474e-007