# vtk DataFile Version 3.0
vtk output
ASCII
DATASET STRUCTURED_POINTS
DIMENSIONS 100 100 1
SPACING 1 1 1
ORIGIN 0 0 0
POINT_DATA 10000
SCALARS SFBox_profile double
LOOKUP_TABLE default 
0.000000e+000
0.000000e+000
0.000000e+000
0.000000e+000
0.000000e+000
0.000000e+000
0.000000e+000
0.000000e+000
0.000000e+000
0.000000e+000
0.000000e+000
0.000000e+000
0.000000e+000
0.000000e+000
0.000000e+000
0.000000e+000
0.000000e+000
0.000000e+000
0.000000e+000
0.000000e+000
0.000000e+000
0.000000e+000
0.000000e+000
0.000000e+000
0.000000e+000
0.000000e+000
0.000000e+000
0.000000e+000
0.000000e+000
0.000000e+000
0.000000e+000
0.000000e+000
0.000000e+000
0.000000e+000
0.000000e+000
0.000000e+000
0.000000e+000
0.000000e+000
0.000000e+000
0.000000e+000
0.000000e+000
0.000000e+000
0.000000e+000
0.000000e+000
0.000000e+000
0.000000e+000
0.000000e+000
0.000000e+000
0.000000e+000
0.000000e+000
0.000000e+000
0.000000e+000
0.000000e+000
0.000000e+000
0.000000e+000
0.000000e+000
0.000000e+000
0.000000e+000
0.000000e+000
0.000000e+000
0.000000e+000
0.000000e+000
0.000000e+000
0.000000e+000
0.000000e+000
0.000000e+000
0.000000e+000
0.000000e+000
0.000000e+000
0.000000e+000
0.000000e+000
0.000000e+000
0.000000e+000
0.000000e+000
0.000000e+000
0.000000e+000
0.000000e+000
0.000000e+000
0.000000e+000
0.000000e+000
0.000000e+000
0.000000e+000
0.000000e+000
0.000000e+000
0.000000e+000
0.000000e+000
0.000000e+000
0.000000e+000
0.000000e+000
0.000000e+000
0.000000e+000
0.000000e+000
0.000000e+000
0.000000e+000
0.000000e+000
0.000000e+000
0.000000e+000
0.000000e+000
0.000000e+000
0.000000e+000
1.302085e-009
-1.791479e-010
-2.129674e-009
-3.164493e-009
-2.252159e-009
6.122243e-010
4.175722e-009
6.419828e-009
5.660157e-009
1.666071e-009
-3.950080e-009
-8.455123e-009
-9.487672e-009
-6.411285e-009
-6.557453e-010
5.163045e-009
8.733900e-009
9.169038e-009
7.106922e-009
3.918724e-009
7.267782e-010
-2.062759e-009
-4.532878e-009
-6.718169e-009
-8.299068e-009
-8.762426e-009
-7.816733e-009
-5.658372e-009
-2.867305e-009
-5.254181e-011
2.445693e-009
4.590118e-009
6.461714e-009
8.064692e-009
9.285378e-009
9.998048e-009
1.018548e-008
9.959684e-009
9.481111e-009
8.863474e-009
8.143874e-009
7.323531e-009
6.423225e-009
5.500157e-009
4.621518e-009
3.830507e-009
3.138631e-009
2.545248e-009
2.058766e-009
1.697443e-009
1.473072e-009
1.379510e-009
1.401444e-009
1.534615e-009
1.793158e-009
2.191128e-009
2.714356e-009
3.315054e-009
3.943055e-009
4.587092e-009
5.278722e-009
6.040427e-009
6.818933e-009
7.474987e-009
7.858570e-009
7.911363e-009
7.692511e-009
7.282151e-009
6.642164e-009
5.583886e-009
3.916770e-009
1.676595e-009
-7.789544e-010
-2.933995e-009
-4.430763e-009
-5.262740e-009
-5.648717e-009
-5.683316e-009
-5.103768e-009
-3.457461e-009
-6.052750e-010
2.854223e-009
5.671560e-009
6.598337e-009
5.181143e-009
2.107051e-009
-1.181465e-009
-3.337638e-009
-3.821654e-009
-3.003419e-009
-1.677762e-009
-4.449484e-010
5.573335e-010
1.442841e-009
2.180577e-009
2.435694e-009
1.817559e-009
3.120211e-010
-1.512391e-009
-2.757921e-009
-5.959309e-010
-2.143395e-010
1.786463e-010
2.447834e-010
1.800970e-012
-1.982332e-010
-1.903817e-011
5.008846e-010
9.208449e-010
7.574311e-010
-6.285668e-011
-1.058535e-009
-1.515459e-009
-1.041237e-009
9.684525e-011
1.139435e-009
1.389604e-009
7.198763e-010
-3.609926e-010
-1.113703e-009
-1.106033e-009
-4.643025e-010
3.160123e-010
7.931290e-010
8.733954e-010
7.729087e-010
7.430653e-010
8.319926e-010
8.747697e-010
6.777496e-010
2.033007e-010
-4.045914e-010
-9.487038e-010
-1.325526e-009
-1.565861e-009
-1.759623e-009
-1.955239e-009
-2.124868e-009
-2.208629e-009
-2.179324e-009
-2.065202e-009
-1.920192e-009
-1.780086e-009
-1.646365e-009
-1.504398e-009
-1.350026e-009
-1.197367e-009
-1.065225e-009
-9.612236e-010
-8.811993e-010
-8.219155e-010
-7.901181e-010
-7.960387e-010
-8.384590e-010
-9.002298e-010
-9.633406e-010
-1.029754e-009
-1.122982e-009
-1.261804e-009
-1.428922e-009
-1.570565e-009
-1.637412e-009
-1.632104e-009
-1.610768e-009
-1.623809e-009
-1.646280e-009
-1.574145e-009
-1.310062e-009
-8.699629e-010
-4.018506e-010
-7.648877e-011
6.375184e-011
1.499279e-010
3.590201e-010
7.140282e-010
1.005759e-009
9.426347e-010
4.246840e-010
-3.030110e-010
-7.852209e-010
-6.998131e-010
-1.280061e-010
4.910429e-010
7.021318e-010
3.930069e-010
-1.327171e-010
-4.300306e-010
-2.966377e-010
6.509089e-011
2.461105e-010
1.349954e-011
-4.580547e-010
-7.141156e-010
-4.096193e-010
3.640636e-010
1.094980e-009
1.216399e-009
5.468549e-010
-5.381296e-010
-1.345233e-009
-2.763481e-009
-3.064250e-010
2.744113e-009
4.145707e-009
2.719480e-009
-9.040567e-010
-4.661398e-009
-6.296827e-009
-4.696657e-009
-5.162989e-010
4.235130e-009
7.335940e-009
7.491864e-009
4.831623e-009
5.937969e-010
-3.649105e-009
-6.689371e-009
-7.963843e-009
-7.443271e-009
-5.395393e-009
-2.246812e-009
1.435569e-009
4.970948e-009
7.696508e-009
9.161549e-009
9.249450e-009
8.140389e-009
6.156558e-009
3.613403e-009
7.664856e-010
-2.157956e-009
-4.927573e-009
-7.321391e-009
-9.186754e-009
-1.047816e-008
-1.124072e-008
-1.155513e-008
-1.149146e-008
-1.110149e-008
-1.043904e-008
-9.576052e-009
-8.595890e-009
-7.572352e-009
-6.556130e-009
-5.578932e-009
-4.666775e-009
-3.847447e-009
-3.146992e-009
-2.582803e-009
-2.162825e-009
-1.891202e-009
-1.772414e-009
-1.808325e-009
-1.992282e-009
-2.309471e-009
-2.745877e-009
-3.296452e-009
-3.960704e-009
-4.726227e-009
-5.555887e-009
-6.394372e-009
-7.190470e-009
-7.911541e-009
-8.529968e-009
-8.990078e-009
-9.190607e-009
-9.010545e-009
-8.365741e-009
-7.248797e-009
-5.716173e-009
-3.839609e-009
-1.681161e-009
6.678789e-010
3.014259e-009
5.038236e-009
6.371582e-009
6.741469e-009
6.077127e-009
4.506832e-009
2.276930e-009
-3.040654e-010
-2.837710e-009
-4.790117e-009
-5.567379e-009
-4.771891e-009
-2.514813e-009
4.632040e-010
3.033754e-009
4.207481e-009
3.639680e-009
1.790651e-009
-3.624183e-010
-1.870328e-009
-2.271223e-009
-1.712789e-009
-7.278536e-010
1.381248e-010
6.054254e-010
7.135788e-010
6.779569e-010
-3.081112e-009
-3.539524e-010
3.155060e-009
4.978414e-009
3.585580e-009
-6.416434e-010
-5.489654e-009
-8.093691e-009
-6.610328e-009
-1.396021e-009
5.076000e-009
9.569254e-009
9.892305e-009
6.041251e-009
1.124204e-011
-5.492160e-009
-8.525945e-009
-8.653435e-009
-6.670732e-009
-3.750918e-009
-7.226624e-010
2.090824e-009
4.579787e-009
6.525278e-009
7.565157e-009
7.425439e-009
6.151154e-009
4.113480e-009
1.801012e-009
-4.162117e-010
-2.376547e-009
-4.053234e-009
-5.432634e-009
-6.461245e-009
-7.081924e-009
-7.293963e-009
-7.168443e-009
-6.809473e-009
-6.303575e-009
-5.699374e-009
-5.022464e-009
-4.299646e-009
-3.567915e-009
-2.865671e-009
-2.220326e-009
-1.644882e-009
-1.143926e-009
-7.214077e-010
-3.839237e-010
-1.388972e-010
9.355375e-012
6.240509e-011
2.705291e-011
-8.927830e-011
-2.843415e-010
-5.623841e-010
-9.274248e-010
-1.372927e-009
-1.878894e-009
-2.422707e-009
-2.994733e-009
-3.599239e-009
-4.231418e-009
-4.847951e-009
-5.363952e-009
-5.689756e-009
-5.778112e-009
-5.630810e-009
-5.247452e-009
-4.565788e-009
-3.472878e-009
-1.911162e-009
-6.656165e-013
1.947812e-009
3.574206e-009
4.660448e-009
5.193231e-009
5.223926e-009
4.661288e-009
3.244724e-009
8.144980e-010
-2.300513e-009
-5.149021e-009
-6.519564e-009
-5.647975e-009
-2.783410e-009
8.403072e-010
3.665714e-009
4.668040e-009
3.826467e-009
1.936143e-009
-1.623132e-011
-1.410707e-009
-2.126089e-009
-2.287821e-009
-1.971437e-009
-1.155881e-009
8.196234e-011
1.394990e-009
2.251828e-009
-5.406361e-010
-1.050284e-010
6.596084e-010
1.393221e-009
1.483454e-009
4.728819e-010
-1.395565e-009
-3.057805e-009
-3.234041e-009
-1.416320e-009
1.552933e-009
3.887467e-009
4.058350e-009
1.911272e-009
-1.177691e-009
-3.256817e-009
-3.145465e-009
-1.165352e-009
1.234866e-009
2.581802e-009
2.322478e-009
9.624807e-010
-5.468848e-010
-1.562044e-009
-2.048988e-009
-2.323580e-009
-2.592453e-009
-2.733023e-009
-2.447150e-009
-1.571885e-009
-2.404670e-010
1.220637e-009
2.523456e-009
3.564879e-009
4.394782e-009
5.083851e-009
5.630682e-009
5.974560e-009
6.070230e-009
5.939129e-009
5.655770e-009
5.296133e-009
4.900752e-009
4.478098e-009
4.032382e-009
3.583906e-009
3.165952e-009
2.807166e-009
2.518926e-009
2.298578e-009
2.143270e-009
2.060042e-009
2.062065e-009
2.154224e-009
2.322630e-009
2.541104e-009
2.791761e-009
3.079425e-009
3.419883e-009
3.806173e-009
4.185201e-009
4.476732e-009
4.627875e-009
4.651466e-009
4.598226e-009
4.474789e-009
4.189180e-009
3.601929e-009
2.664664e-009
1.521208e-009
4.486324e-010
-3.435316e-010
-8.782749e-010
-1.357374e-009
-1.900158e-009
-2.316440e-009
-2.180682e-009
-1.219574e-009
3.037281e-010
1.603079e-009
1.872113e-009
9.177744e-010
-6.163549e-010
-1.681187e-009
-1.599265e-009
-5.571608e-010
5.989292e-010
1.085700e-009
7.986202e-010
2.974818e-010
2.027546e-010
5.700911e-010
8.259666e-010
3.361643e-010
-9.045820e-010
-2.107637e-009
-2.254027e-009
-9.503754e-010
1.142842e-009
2.706290e-009
3.732659e-009
5.835322e-010
-3.109856e-009
-4.480754e-009
-2.500191e-009
1.416069e-009
4.598036e-009
5.068189e-009
2.759483e-009
-7.611220e-010
-3.613894e-009
-4.812307e-009
-4.494448e-009
-3.264719e-009
-1.452898e-009
9.912310e-010
3.976026e-009
6.767698e-009
8.128611e-009
7.078420e-009
3.649133e-009
-1.020311e-009
-5.342620e-009
-8.167777e-009
-9.236766e-009
-8.965803e-009
-7.878466e-009
-6.207574e-009
-3.928060e-009
-1.059343e-009
2.118399e-009
5.133740e-009
7.580249e-009
9.310315e-009
1.041745e-008
1.106758e-008
1.135129e-008
1.126715e-008
1.080558e-008
1.002483e-008
9.048331e-009
8.002153e-009
6.960740e-009
5.945255e-009
4.961595e-009
4.034024e-009
3.205821e-009
2.515119e-009
1.975063e-009
1.577668e-009
1.314982e-009
1.194595e-009
1.233216e-009
1.434813e-009
1.777300e-009
2.225740e-009
2.763005e-009
3.405411e-009
4.178691e-009
5.068855e-009
5.997062e-009
6.855192e-009
7.578679e-009
8.181395e-009
8.698227e-009
9.073438e-009
9.110662e-009
8.568190e-009
7.345429e-009
5.590410e-009
3.600931e-009
1.586283e-009
-4.768007e-010
-2.712171e-009
-5.018628e-009
-6.869751e-009
-7.508218e-009
-6.461147e-009
-3.967794e-009
-9.232397e-010
1.662312e-009
3.253121e-009
3.934589e-009
4.030847e-009
3.609225e-009
2.400518e-009
2.528062e-010
-2.327410e-009
-4.162409e-009
-4.104965e-009
-1.967313e-009
1.115779e-009
3.305261e-009
3.290092e-009
1.226341e-009
-1.354940e-009
-2.641560e-009
-1.839016e-009
2.880845e-010
2.029155e-009
6.873517e-009
1.411903e-009
-5.297707e-009
-8.379862e-009
-5.606488e-009
1.253415e-009
7.800368e-009
9.989336e-009
6.641734e-009
-1.083493e-010
-6.483736e-009
-9.479489e-009
-8.354374e-009
-4.440052e-009
1.933591e-010
4.016670e-009
6.436949e-009
7.395868e-009
6.869055e-009
4.818511e-009
1.529399e-009
-2.170693e-009
-5.169408e-009
-6.653855e-009
-6.530945e-009
-5.340695e-009
-3.776104e-009
-2.237742e-009
-7.540409e-010
7.692711e-010
2.277276e-009
3.527992e-009
4.277509e-009
4.473721e-009
4.275888e-009
3.908638e-009
3.504535e-009
3.066969e-009
2.550705e-009
1.956417e-009
1.350600e-009
8.123648e-010
3.747494e-010
1.657785e-011
-2.988180e-010
-5.838986e-010
-8.224906e-010
-9.959961e-010
-1.107457e-009
-1.178758e-009
-1.226951e-009
-1.247018e-009
-1.220498e-009
-1.141099e-009
-1.028105e-009
-9.084130e-010
-7.816338e-010
-6.068310e-010
-3.341249e-010
4.268641e-011
4.685933e-010
8.758703e-010
1.259758e-009
1.697674e-009
2.269078e-009
2.936642e-009
3.512586e-009
3.772382e-009
3.629658e-009
3.198381e-009
2.655445e-009
2.020641e-009
1.089319e-009
-3.637784e-010
-2.262394e-009
-4.102195e-009
-5.192835e-009
-5.100889e-009
-3.913337e-009
-2.091248e-009
-7.570180e-011
1.944443e-009
3.863236e-009
5.292930e-009
5.482606e-009
3.780397e-009
3.477689e-010
-3.530371e-009
-5.977054e-009
-5.658781e-009
-2.726305e-009
1.178718e-009
3.922277e-009
4.203793e-009
2.293530e-009
-2.917699e-010
-1.888908e-009
-1.770581e-009
-4.938350e-010
6.516409e-010
6.079545e-009
1.660782e-009
-3.972202e-009
-6.964491e-009
-5.280258e-009
3.761406e-011
5.589352e-009
7.852051e-009
5.461670e-009
2.607710e-011
-5.050275e-009
-6.863559e-009
-4.802858e-009
-6.537938e-010
2.879686e-009
4.013642e-009
2.766670e-009
4.719651e-010
-1.423306e-009
-2.239586e-009
-2.099624e-009
-1.393494e-009
-3.265840e-010
1.076501e-009
2.680083e-009
4.076861e-009
4.763687e-009
4.474228e-009
3.339515e-009
1.742258e-009
2.903694e-011
-1.655475e-009
-3.308296e-009
-4.902567e-009
-6.304669e-009
-7.340566e-009
-7.919833e-009
-8.087340e-009
-7.965009e-009
-7.654960e-009
-7.195014e-009
-6.589009e-009
-5.861033e-009
-5.073921e-009
-4.301423e-009
-3.591052e-009
-2.955926e-009
-2.397572e-009
-1.930224e-009
-1.580625e-009
-1.367170e-009
-1.284922e-009
-1.315428e-009
-1.451302e-009
-1.706373e-009
-2.095400e-009
-2.601835e-009
-3.171206e-009
-3.745443e-009
-4.306892e-009
-4.879728e-009
-5.473348e-009
-6.018606e-009
-6.371857e-009
-6.403429e-009
-6.093874e-009
-5.534346e-009
-4.814969e-009
-3.911619e-009
-2.708161e-009
-1.164240e-009
5.284928e-010
1.982555e-009
2.849181e-009
3.044989e-009
2.747463e-009
2.163686e-009
1.328899e-009
1.838854e-010
-1.121483e-009
-2.051522e-009
-1.940355e-009
-5.712928e-010
1.426920e-009
2.825151e-009
2.613506e-009
7.810308e-010
-1.601938e-009
-3.109802e-009
-2.938839e-009
-1.381807e-009
5.127555e-010
1.741340e-009
1.943969e-009
1.412627e-009
6.636541e-010
2.949655e-011
-4.277005e-010
-7.499543e-010
-9.322165e-010
7.580849e-010
7.387099e-010
3.903192e-010
-3.816620e-010
-1.145829e-009
-1.285040e-009
-6.628747e-010
1.371168e-010
3.533696e-010
-1.171133e-010
-4.724326e-010
2.765135e-010
2.214395e-009
4.109854e-009
4.198257e-009
1.594590e-009
-2.842794e-009
-6.947392e-009
-8.643527e-009
-7.208847e-009
-3.497908e-009
8.662962e-010
4.550637e-009
7.021887e-009
8.334651e-009
8.637704e-009
7.925606e-009
6.171325e-009
3.570943e-009
5.850941e-010
-2.268248e-009
-4.657277e-009
-6.502762e-009
-7.856341e-009
-8.749370e-009
-9.154179e-009
-9.054835e-009
-8.519209e-009
-7.689570e-009
-6.709306e-009
-5.663608e-009
-4.582646e-009
-3.486068e-009
-2.414653e-009
-1.422259e-009
-5.478552e-010
1.971241e-010
8.153135e-010
1.303644e-009
1.650437e-009
1.849212e-009
1.908492e-009
1.842623e-009
1.653430e-009
1.326683e-009
8.521591e-010
2.465084e-010
-4.509139e-010
-1.211489e-009
-2.044187e-009
-2.977086e-009
-4.000456e-009
-5.028403e-009
-5.929480e-009
-6.606124e-009
-7.039038e-009
-7.236392e-009
-7.132573e-009
-6.558529e-009
-5.352953e-009
-3.531553e-009
-1.340539e-009
8.847312e-010
2.924849e-009
4.715231e-009
6.147689e-009
6.851393e-009
6.272655e-009
4.118564e-009
8.200805e-010
-2.469939e-009
-4.484012e-009
-4.633120e-009
-3.332954e-009
-1.581254e-009
-1.694179e-010
7.640277e-010
1.482930e-009
2.051391e-009
2.077022e-009
1.126914e-009
-5.958623e-010
-2.083941e-009
-2.201676e-009
-6.956572e-010
1.404032e-009
2.479971e-009
1.627882e-009
-5.405362e-010
-2.332330e-009
-6.546419e-009
-1.143735e-009
5.178714e-009
7.575525e-009
4.429094e-009
-1.808808e-009
-6.833976e-009
-7.704714e-009
-4.530640e-009
3.038384e-010
4.251832e-009
6.138058e-009
6.139540e-009
4.793365e-009
2.306623e-009
-1.197419e-009
-5.008911e-009
-7.704053e-009
-7.911037e-009
-5.341977e-009
-1.132455e-009
2.856998e-009
5.203603e-009
5.625331e-009
4.783072e-009
3.528927e-009
2.308895e-009
1.125427e-009
-1.075221e-010
-1.269749e-009
-2.066734e-009
-2.277413e-009
-1.928305e-009
-1.240134e-009
-4.399205e-010
3.680163e-010
1.182226e-009
2.004763e-009
2.782962e-009
3.437183e-009
3.922643e-009
4.254064e-009
4.477184e-009
4.626898e-009
4.713259e-009
4.737283e-009
4.709179e-009
4.648998e-009
4.575638e-009
4.501251e-009
4.435460e-009
4.388361e-009
4.364064e-009
4.352908e-009
4.336827e-009
4.306721e-009
4.270900e-009
4.237747e-009
4.186151e-009
4.060170e-009
3.805684e-009
3.417417e-009
2.940537e-009
2.412508e-009
1.805195e-009
1.047882e-009
1.340692e-010
-7.933510e-010
-1.494274e-009
-1.804939e-009
-1.764281e-009
-1.534306e-009
-1.163802e-009
-4.542409e-010
8.562303e-010
2.691195e-009
4.410938e-009
5.085458e-009
4.140988e-009
1.844598e-009
-8.374089e-010
-2.918232e-009
-3.998132e-009
-4.252886e-009
-3.885471e-009
-2.703844e-009
-3.856559e-010
2.760820e-009
5.391445e-009
5.758017e-009
3.095749e-009
-1.395652e-009
-5.024340e-009
-5.424911e-009
-2.380385e-009
1.876549e-009
4.266579e-009
3.192177e-009
-2.485169e-010
-3.158824e-009
-1.137913e-008
-2.849680e-009
7.409963e-009
1.189043e-008
7.787804e-009
-1.442061e-009
-9.153032e-009
-1.049370e-008
-5.483125e-009
1.775760e-009
6.582405e-009
6.848457e-009
3.783560e-009
1.400608e-010
-2.073944e-009
-2.563298e-009
-2.084974e-009
-1.275429e-009
-1.944653e-010
1.212429e-009
2.514678e-009
2.852465e-009
1.632195e-009
-8.578766e-010
-3.540357e-009
-5.270814e-009
-5.540570e-009
-4.602796e-009
-3.041266e-009
-1.261107e-009
6.690267e-010
2.806838e-009
5.068731e-009
7.181260e-009
8.851537e-009
9.950132e-009
1.053710e-008
1.074622e-008
1.066534e-008
1.031426e-008
9.702969e-009
8.885537e-009
7.956224e-009
7.006281e-009
6.091502e-009
5.235207e-009
4.451237e-009
3.760070e-009
3.188691e-009
2.762757e-009
2.499982e-009
2.405582e-009
2.469765e-009
2.672579e-009
2.998407e-009
3.448300e-009
4.031655e-009
4.736709e-009
5.508695e-009
6.267855e-009
6.959740e-009
7.583561e-009
8.151745e-009
8.606987e-009
8.790675e-009
8.528105e-009
7.773311e-009
6.662808e-009
5.390498e-009
4.007424e-009
2.373828e-009
3.751873e-010
-1.772386e-009
-3.466102e-009
-4.065715e-009
-3.397889e-009
-1.944414e-009
-4.895737e-010
4.724702e-010
9.970712e-010
1.357672e-009
1.500165e-009
9.482628e-010
-6.087888e-010
-2.599088e-009
-3.588355e-009
-2.309779e-009
1.055412e-009
4.565218e-009
5.711897e-009
3.346167e-009
-1.228595e-009
-5.014172e-009
-5.469171e-009
-2.411857e-009
1.835206e-009
4.200325e-009
3.166582e-009
-1.478107e-010
-2.940086e-009
-1.018764e-008
-3.037646e-009
5.649530e-009
9.631587e-009
6.534598e-009
-7.495743e-010
-6.583878e-009
-6.929100e-009
-2.177197e-009
3.534714e-009
5.750596e-009
3.048591e-009
-2.208567e-009
-6.015997e-009
-5.793595e-009
-1.952986e-009
2.939044e-009
6.297689e-009
7.081084e-009
5.790848e-009
3.426435e-009
6.098845e-010
-2.435052e-009
-5.376227e-009
-7.510754e-009
-8.093845e-009
-6.899274e-009
-4.419079e-009
-1.510021e-009
1.163060e-009
3.400903e-009
5.309894e-009
6.966678e-009
8.254244e-009
8.970834e-009
9.034812e-009
8.562685e-009
7.770093e-009
6.821867e-009
5.772099e-009
4.616730e-009
3.374809e-009
2.115147e-009
9.210356e-010
-1.554162e-010
-1.104470e-009
-1.935402e-009
-2.648103e-009
-3.223185e-009
-3.631997e-009
-3.854324e-009
-3.890871e-009
-3.761943e-009
-3.490682e-009
-3.081462e-009
-2.514711e-009
-1.771314e-009
-8.698097e-010
1.245089e-010
1.141472e-009
2.165358e-009
3.241351e-009
4.398355e-009
5.552216e-009
6.502486e-009
7.060207e-009
7.196410e-009
7.041849e-009
6.698898e-009
6.044076e-009
4.765353e-009
2.671561e-009
5.676795e-012
-2.577516e-009
-4.411861e-009
-5.241921e-009
-5.245978e-009
-4.639914e-009
-3.323500e-009
-1.046878e-009
1.978462e-009
4.688305e-009
5.606327e-009
3.961186e-009
5.435988e-010
-2.593659e-009
-3.539377e-009
-1.947971e-009
7.171455e-010
2.355720e-009
1.853707e-009
-1.624443e-010
-1.979534e-009
-2.219295e-009
-8.421052e-010
9.818061e-010
1.881811e-009
1.308748e-009
-1.614007e-010
-1.347224e-009
-2.851167e-009
-1.250767e-009
7.781997e-010
1.838418e-009
1.305386e-009
-1.320630e-010
-9.212768e-010
5.362289e-011
2.296827e-009
3.788476e-009
2.537627e-009
-1.557678e-009
-6.198976e-009
-8.173115e-009
-5.755651e-009
-7.687116e-011
5.671814e-009
8.501488e-009
7.513895e-009
4.050676e-009
3.023244e-010
-2.254485e-009
-3.393016e-009
-3.579052e-009
-3.171243e-009
-2.171409e-009
-5.591393e-010
1.344744e-009
2.940516e-009
3.752499e-009
3.735391e-009
3.198034e-009
2.469737e-009
1.652747e-009
6.544968e-010
-6.069992e-010
-2.064338e-009
-3.545573e-009
-4.917194e-009
-6.167680e-009
-7.367995e-009
-8.574742e-009
-9.776369e-009
-1.091620e-008
-1.194787e-008
-1.286353e-008
-1.367723e-008
-1.439056e-008
-1.497540e-008
-1.538594e-008
-1.558645e-008
-1.557146e-008
-1.536177e-008
-1.497864e-008
-1.441871e-008
-1.365746e-008
-1.268662e-008
-1.155251e-008
-1.034789e-008
-9.148024e-009
-7.947019e-009
-6.670454e-009
-5.273037e-009
-3.828269e-009
-2.497918e-009
-1.383062e-009
-4.054602e-010
6.241800e-010
1.775836e-009
2.833987e-009
3.405180e-009
3.240845e-009
2.459975e-009
1.418488e-009
3.444775e-010
-8.427209e-010
-2.261876e-009
-3.593507e-009
-3.982244e-009
-2.621061e-009
3.923469e-010
3.760651e-009
5.696600e-009
5.161178e-009
2.596355e-009
-4.762773e-010
-2.603225e-009
-3.270152e-009
-2.838816e-009
-1.852118e-009
-5.555159e-010
9.214720e-010
2.131825e-009
2.351743e-009
1.235640e-009
-6.003541e-010
-1.843845e-009
-1.546080e-009
-1.833285e-011
1.364435e-009
6.939459e-009
1.550746e-009
-4.735870e-009
-7.239374e-009
-4.623024e-009
6.669199e-010
4.900941e-009
5.942205e-009
4.150543e-009
1.182713e-009
-1.609364e-009
-3.662324e-009
-4.645688e-009
-4.055731e-009
-1.679141e-009
1.649789e-009
4.118540e-009
4.121154e-009
1.585210e-009
-1.826383e-009
-3.900695e-009
-3.437228e-009
-8.968129e-010
2.245568e-009
4.692476e-009
6.011416e-009
6.437975e-009
6.262100e-009
5.485621e-009
3.976288e-009
1.794326e-009
-7.236037e-010
-3.192627e-009
-5.449701e-009
-7.597845e-009
-9.825894e-009
-1.221735e-008
-1.472198e-008
-1.726720e-008
-1.985963e-008
-2.257489e-008
-2.546762e-008
-2.850338e-008
-3.157063e-008
-3.454371e-008
-3.733002e-008
-3.986677e-008
-4.208716e-008
-4.389844e-008
-4.519467e-008
-4.589209e-008
-4.595562e-008
-4.539387e-008
-4.422848e-008
-4.246993e-008
-4.013054e-008
-3.727025e-008
-3.402960e-008
-3.060246e-008
-2.715562e-008
-2.376686e-008
-2.045085e-008
-1.725461e-008
-1.431373e-008
-1.177935e-008
-9.664384e-009
-7.776065e-009
-5.846967e-009
-3.768491e-009
-1.687395e-009
1.599230e-010
1.708050e-009
3.100798e-009
4.404001e-009
5.290442e-009
5.129700e-009
3.550269e-009
9.913017e-010
-1.366706e-009
-2.372186e-009
-1.740909e-009
-1.933205e-010
1.223688e-009
1.940197e-009
2.013007e-009
1.602146e-009
5.391706e-010
-1.357067e-009
-3.519919e-009
-4.473328e-009
-2.871407e-009
9.950677e-010
4.793707e-009
5.664789e-009
2.637838e-009
-2.213175e-009
-5.183584e-009
-3.951811e-009
3.842429e-010
4.139744e-009
1.385483e-008
3.566027e-009
-8.342170e-009
-1.286125e-008
-7.626232e-009
2.111864e-009
8.593966e-009
7.846155e-009
1.975473e-009
-3.657769e-009
-5.162656e-009
-2.601500e-009
1.177773e-009
3.448618e-009
3.417573e-009
1.862891e-009
-2.475900e-010
-2.472150e-009
-4.505578e-009
-5.608922e-009
-4.822976e-009
-1.844410e-009
2.413820e-009
6.263730e-009
8.340252e-009
8.381076e-009
7.083258e-009
5.322077e-009
3.505535e-009
1.536462e-009
-8.001362e-010
-3.529496e-009
-6.533310e-009
-9.795363e-009
-1.352796e-008
-1.805421e-008
-2.359428e-008
-3.016708e-008
-3.765991e-008
-4.594788e-008
-5.493144e-008
-6.447876e-008
-7.436050e-008
-8.425417e-008
-9.381136e-008
-1.027225e-007
-1.107302e-007
-1.176009e-007
-1.230998e-007
-1.270022e-007
-1.291328e-007
-1.293962e-007
-1.277733e-007
-1.242908e-007
-1.190039e-007
-1.120187e-007
-1.035427e-007
-9.390687e-008
-8.352056e-008
-7.278328e-008
-6.203128e-008
-5.156907e-008
-4.173870e-008
-3.291673e-008
-2.539093e-008
-1.921383e-008
-1.419648e-008
-1.008435e-008
-6.749329e-009
-4.178575e-009
-2.252156e-009
-5.804613e-010
1.318756e-009
3.572601e-009
5.673094e-009
6.746155e-009
6.230585e-009
4.357339e-009
1.951958e-009
-2.384700e-010
-1.976063e-009
-3.271181e-009
-3.813196e-009
-2.939100e-009
-4.362038e-010
2.609125e-009
4.093069e-009
2.516526e-009
-1.361273e-009
-4.601197e-009
-4.292266e-009
-1.937941e-010
4.645323e-009
6.184776e-009
2.851481e-009
-2.878969e-009
-6.362969e-009
-4.681351e-009
8.012674e-010
5.508598e-009
1.419505e-008
3.462006e-009
-8.626455e-009
-1.251647e-008
-6.194668e-009
3.945808e-009
9.188679e-009
5.843645e-009
-2.322672e-009
-8.021546e-009
-6.746009e-009
8.236279e-012
6.761384e-009
8.838755e-009
5.627980e-009
7.241834e-011
-4.306533e-009
-5.883877e-009
-5.148265e-009
-3.303839e-009
-1.060753e-009
1.388674e-009
3.715457e-009
5.191659e-009
5.177352e-009
3.746716e-009
1.698746e-009
-1.007088e-010
-1.411571e-009
-2.744312e-009
-4.923247e-009
-8.587530e-009
-1.405530e-008
-2.152789e-008
-3.130026e-008
-4.373399e-008
-5.905187e-008
-7.718154e-008
-9.777916e-008
-1.203648e-007
-1.444213e-007
-1.693914e-007
-1.946335e-007
-2.194234e-007
-2.430216e-007
-2.647507e-007
-2.840257e-007
-3.003339e-007
-3.132077e-007
-3.222330e-007
-3.270868e-007
-3.275708e-007
-3.236112e-007
-3.152358e-007
-3.025704e-007
-2.858742e-007
-2.655913e-007
-2.423612e-007
-2.169589e-007
-1.902084e-007
-1.629417e-007
-1.360240e-007
-1.103710e-007
-8.686207e-008
-6.615757e-008
-4.856490e-008
-3.409299e-008
-2.265387e-008
-1.418745e-008
-8.536788e-009
-5.188551e-009
-3.218093e-009
-1.638839e-009
7.359804e-011
1.776932e-009
3.012747e-009
3.566930e-009
3.629989e-009
3.377204e-009
2.513208e-009
4.969945e-010
-2.563217e-009
-5.290098e-009
-5.668805e-009
-2.748194e-009
2.068331e-009
5.616409e-009
5.331488e-009
1.470799e-009
-2.881463e-009
-4.269230e-009
-1.767226e-009
2.225131e-009
4.068554e-009
2.063344e-009
-2.062126e-009
-4.664027e-009
-3.370803e-009
8.370023e-010
4.454181e-009
8.000283e-009
1.371925e-009
-5.653184e-009
-6.936555e-009
-1.747039e-009
4.867495e-009
6.735161e-009
2.019334e-009
-5.262851e-009
-8.826497e-009
-5.525898e-009
2.116056e-009
8.234849e-009
8.522820e-009
3.427263e-009
-2.777280e-009
-5.751852e-009
-4.247864e-009
-2.835792e-010
3.142721e-009
4.398483e-009
3.772933e-009
2.389620e-009
9.586844e-010
-5.063116e-010
-2.165297e-009
-3.930722e-009
-5.681441e-009
-7.798914e-009
-1.137441e-008
-1.785168e-008
-2.846476e-008
-4.396384e-008
-6.474823e-008
-9.111896e-008
-1.233303e-007
-1.614069e-007
-2.049442e-007
-2.530904e-007
-3.047018e-007
-3.585162e-007
-4.132303e-007
-4.674986e-007
-5.199421e-007
-5.692132e-007
-6.140802e-007
-6.534706e-007
-6.864588e-007
-7.122370e-007
-7.301153e-007
-7.395525e-007
-7.401887e-007
-7.318507e-007
-7.145454e-007
-6.884785e-007
-6.541089e-007
-6.122070e-007
-5.638570e-007
-5.103952e-007
-4.533364e-007
-3.943469e-007
-3.352483e-007
-2.779531e-007
-2.242636e-007
-1.756076e-007
-1.328967e-007
-9.661266e-008
-6.700452e-008
-4.414084e-008
-2.771615e-008
-1.682835e-008
-1.007098e-008
-6.004031e-009
-3.630249e-009
-2.419209e-009
-1.880994e-009
-1.246681e-009
2.131942e-010
2.423212e-009
4.174180e-009
3.906686e-009
1.183198e-009
-2.499368e-009
-4.558843e-009
-3.349706e-009
3.696691e-010
3.921157e-009
4.821787e-009
2.711863e-009
-5.455211e-010
-2.560836e-009
-2.321727e-009
-7.031242e-010
6.199390e-010
6.810362e-010
-1.651133e-010
-8.409506e-010
-6.122994e-010
3.339995e-010
1.164316e-009
-1.338071e-009
-1.234625e-009
-5.774432e-010
9.050375e-010
2.666019e-009
3.377539e-009
1.904723e-009
-1.426913e-009
-4.528933e-009
-4.910526e-009
-1.844638e-009
2.616451e-009
5.017516e-009
3.354708e-009
-1.075292e-009
-4.604706e-009
-4.195485e-009
1.006241e-010
5.317375e-009
8.066391e-009
7.056914e-009
3.598361e-009
3.967067e-011
-2.187442e-009
-3.311800e-009
-4.578518e-009
-7.267226e-009
-1.237249e-008
-2.098749e-008
-3.470567e-008
-5.550235e-008
-8.521356e-008
-1.251110e-007
-1.758635e-007
-2.377256e-007
-3.106196e-007
-3.939906e-007
-4.866097e-007
-5.865591e-007
-6.914448e-007
-7.986833e-007
-9.056996e-007
-1.010002e-006
-1.109214e-006
-1.201132e-006
-1.283799e-006
-1.355548e-006
-1.414977e-006
-1.460913e-006
-1.492378e-006
-1.508607e-006
-1.509057e-006
-1.493422e-006
-1.461640e-006
-1.413941e-006
-1.350935e-006
-1.273686e-006
-1.183744e-006
-1.083109e-006
-9.742125e-007
-8.599305e-007
-7.435654e-007
-6.286837e-007
-5.187645e-007
-4.168014e-007
-3.250727e-007
-2.451594e-007
-1.780436e-007
-1.240571e-007
-8.267653e-008
-5.245724e-008
-3.138041e-008
-1.747869e-008
-9.228172e-009
-5.337890e-009
-4.207736e-009
-3.799298e-009
-2.346340e-009
5.922538e-010
3.810765e-009
5.426535e-009
4.472919e-009
1.739861e-009
-8.857375e-010
-1.929612e-009
-1.291960e-009
7.500565e-011
1.192585e-009
1.660236e-009
1.447491e-009
5.135025e-010
-1.040826e-009
-2.512863e-009
-2.722663e-009
-1.032034e-009
1.678070e-009
3.349615e-009
2.460814e-009
-4.268952e-010
-2.941406e-009
-9.441460e-009
-2.689901e-009
4.962811e-009
7.745273e-009
4.597500e-009
-8.254530e-010
-4.026732e-009
-3.361277e-009
-4.782661e-010
1.967397e-009
2.555823e-009
1.458004e-009
-5.218487e-010
-2.619243e-009
-3.971636e-009
-3.528483e-009
-7.515060e-010
3.465392e-009
6.914761e-009
7.555113e-009