# vtk DataFile Version 3.0
vtk output
ASCII
DATASET STRUCTURED_POINTS
DIMENSIONS 100 100 1
SPACING 1 1 1
ORIGIN 0 0 0
POINT_DATA 10000
SCALARS SFBox_profile double
LOOKUP_TABLE default 
9.439911e-003
9.439913e-003
9.439917e-003
9.439922e-003
9.439929e-003
9.439936e-003
9.439944e-003
9.439952e-003
9.439961e-003
9.439969e-003
9.439977e-003
9.439983e-003
9.439984e-003
9.439974e-003
9.439946e-003
9.439889e-003
9.439787e-003
9.439625e-003
9.439382e-003
9.439040e-003
9.438580e-003
9.437984e-003
9.437240e-003
9.436338e-003
9.435273e-003
9.434048e-003
9.432668e-003
9.431146e-003
9.429498e-003
9.427742e-003
9.425900e-003
9.423991e-003
9.422033e-003
9.420043e-003
9.418035e-003
9.416019e-003
9.414001e-003
9.411989e-003
9.409986e-003
9.407994e-003
9.406014e-003
9.404047e-003
9.402095e-003
9.400160e-003
9.398248e-003
9.396366e-003
9.394524e-003
9.392734e-003
9.391013e-003
9.389377e-003
9.387849e-003
9.386450e-003
9.385205e-003
9.384140e-003
9.383282e-003
9.382662e-003
9.382306e-003
9.382245e-003
9.382506e-003
9.383113e-003
9.384087e-003
9.385443e-003
9.387190e-003
9.389327e-003
9.391841e-003
9.394711e-003
9.397899e-003
9.401355e-003
9.405014e-003
9.408802e-003
9.412634e-003
9.416421e-003
9.420076e-003
9.423515e-003
9.426669e-003
9.429482e-003
9.431920e-003
9.433970e-003
9.435639e-003
9.436952e-003
9.437949e-003
9.438677e-003
9.439186e-003
9.439525e-003
9.439738e-003
9.439862e-003
9.439927e-003
9.439955e-003
9.439962e-003
9.439959e-003
9.439952e-003
9.439945e-003
9.439940e-003
9.439936e-003
9.439933e-003
9.439929e-003
9.439925e-003
9.439921e-003
9.439918e-003
9.439916e-003
9.439911e-003
9.439913e-003
9.439917e-003
9.439922e-003
9.439929e-003
9.439936e-003
9.439944e-003
9.439952e-003
9.439961e-003
9.439969e-003
9.439977e-003
9.439983e-003
9.439984e-003
9.439974e-003
9.439946e-003
9.439889e-003
9.439787e-003
9.439625e-003
9.439382e-003
9.439040e-003
9.438580e-003
9.437984e-003
9.437240e-003
9.436338e-003
9.435273e-003
9.434048e-003
9.432668e-003
9.431146e-003
9.429498e-003
9.427742e-003
9.425900e-003
9.423991e-003
9.422033e-003
9.420043e-003
9.418035e-003
9.416019e-003
9.414001e-003
9.411989e-003
9.409986e-003
9.407994e-003
9.406014e-003
9.404047e-003
9.402095e-003
9.400160e-003
9.398248e-003
9.396366e-003
9.394524e-003
9.392734e-003
9.391013e-003
9.389377e-003
9.387849e-003
9.386450e-003
9.385205e-003
9.384140e-003
9.383282e-003
9.382662e-003
9.382306e-003
9.382245e-003
9.382506e-003
9.383113e-003
9.384087e-003
9.385443e-003
9.387190e-003
9.389327e-003
9.391841e-003
9.394711e-003
9.397899e-003
9.401355e-003
9.405014e-003
9.408802e-003
9.412634e-003
9.416421e-003
9.420076e-003
9.423515e-003
9.426669e-003
9.429482e-003
9.431920e-003
9.433970e-003
9.435639e-003
9.436952e-003
9.437949e-003
9.438677e-003
9.439186e-003
9.439525e-003
9.439738e-003
9.439862e-003
9.439927e-003
9.439955e-003
9.439962e-003
9.439959e-003
9.439952e-003
9.439945e-003
9.439940e-003
9.439936e-003
9.439933e-003
9.439929e-003
9.439925e-003
9.439921e-003
9.439918e-003
9.439916e-003
9.439917e-003
9.439918e-003
9.439921e-003
9.439926e-003
9.439931e-003
9.439938e-003
9.439946e-003
9.439955e-003
9.439963e-003
9.439971e-003
9.439974e-003
9.439970e-003
9.439952e-003
9.439909e-003
9.439828e-003
9.439690e-003
9.439470e-003
9.439142e-003
9.438676e-003
9.438042e-003
9.437211e-003
9.436161e-003
9.434872e-003
9.433336e-003
9.431552e-003
9.429529e-003
9.427284e-003
9.424842e-003
9.422232e-003
9.419488e-003
9.416643e-003
9.413728e-003
9.410773e-003
9.407801e-003
9.404833e-003
9.401883e-003
9.398960e-003
9.396073e-003
9.393225e-003
9.390417e-003
9.387652e-003
9.384929e-003
9.382251e-003
9.379621e-003
9.377044e-003
9.374530e-003
9.372091e-003
9.369741e-003
9.367501e-003
9.365391e-003
9.363435e-003
9.361661e-003
9.360096e-003
9.358771e-003
9.357719e-003
9.356972e-003
9.356566e-003
9.356535e-003
9.356912e-003
9.357729e-003
9.359014e-003
9.360790e-003
9.363074e-003
9.365874e-003
9.369187e-003
9.372996e-003
9.377267e-003
9.381950e-003
9.386974e-003
9.392249e-003
9.397668e-003
9.403112e-003
9.408453e-003
9.413566e-003
9.418334e-003
9.422661e-003
9.426476e-003
9.429737e-003
9.432439e-003
9.434603e-003
9.436276e-003
9.437524e-003
9.438419e-003
9.439034e-003
9.439437e-003
9.439686e-003
9.439831e-003
9.439906e-003
9.439940e-003
9.439951e-003
9.439951e-003
9.439947e-003
9.439942e-003
9.439937e-003
9.439933e-003
9.439929e-003
9.439925e-003
9.439922e-003
9.439919e-003
9.439918e-003
9.439927e-003
9.439927e-003
9.439929e-003
9.439932e-003
9.439937e-003
9.439943e-003
9.439951e-003
9.439960e-003
9.439966e-003
9.439968e-003
9.439956e-003
9.439922e-003
9.439850e-003
9.439716e-003
9.439493e-003
9.439140e-003
9.438613e-003
9.437859e-003
9.436824e-003
9.435452e-003
9.433696e-003
9.431520e-003
9.428901e-003
9.425835e-003
9.422340e-003
9.418447e-003
9.414205e-003
9.409676e-003
9.404924e-003
9.400019e-003
9.395024e-003
9.390000e-003
9.384996e-003
9.380053e-003
9.375202e-003
9.370462e-003
9.365849e-003
9.361368e-003
9.357024e-003
9.352816e-003
9.348744e-003
9.344809e-003
9.341010e-003
9.337353e-003
9.333843e-003
9.330490e-003
9.327307e-003
9.324310e-003
9.321516e-003
9.318946e-003
9.316621e-003
9.314567e-003
9.312807e-003
9.311369e-003
9.310280e-003
9.309569e-003
9.309268e-003
9.309408e-003
9.310024e-003
9.311149e-003
9.312822e-003
9.315080e-003
9.317961e-003
9.321503e-003
9.325738e-003
9.330689e-003
9.336366e-003
9.342755e-003
9.349810e-003
9.357454e-003
9.365566e-003
9.373987e-003
9.382524e-003
9.390959e-003
9.399069e-003
9.406643e-003
9.413503e-003
9.419518e-003
9.424619e-003
9.428797e-003
9.432100e-003
9.434617e-003
9.436464e-003
9.437767e-003
9.438647e-003
9.439216e-003
9.439565e-003
9.439767e-003
9.439874e-003
9.439924e-003
9.439943e-003
9.439947e-003
9.439944e-003
9.439939e-003
9.439934e-003
9.439930e-003
9.439926e-003
9.439923e-003
9.439922e-003
9.439921e-003
9.439938e-003
9.439939e-003
9.439939e-003
9.439942e-003
9.439945e-003
9.439951e-003
9.439958e-003
9.439963e-003
9.439961e-003
9.439942e-003
9.439890e-003
9.439781e-003
9.439580e-003
9.439240e-003
9.438698e-003
9.437876e-003
9.436685e-003
9.435023e-003
9.432790e-003
9.429891e-003
9.426253e-003
9.421828e-003
9.416611e-003
9.410632e-003
9.403966e-003
9.396721e-003
9.389027e-003
9.381031e-003
9.372880e-003
9.364713e-003
9.356653e-003
9.348804e-003
9.341245e-003
9.334033e-003
9.327204e-003
9.320777e-003
9.314761e-003
9.309152e-003
9.303947e-003
9.299138e-003
9.294722e-003
9.290695e-003
9.287056e-003
9.283806e-003
9.280944e-003
9.278471e-003
9.276384e-003
9.274677e-003
9.273340e-003
9.272357e-003
9.271708e-003
9.271370e-003
9.271312e-003
9.271502e-003
9.271906e-003
9.272488e-003
9.273214e-003
9.274055e-003
9.274991e-003
9.276019e-003
9.277154e-003
9.278444e-003
9.279967e-003
9.281840e-003
9.284219e-003
9.287287e-003
9.291244e-003
9.296287e-003
9.302580e-003
9.310227e-003
9.319244e-003
9.329536e-003
9.340886e-003
9.352968e-003
9.365363e-003
9.377611e-003
9.389257e-003
9.399905e-003
9.409264e-003
9.417171e-003
9.423590e-003
9.428599e-003
9.432355e-003
9.435062e-003
9.436933e-003
9.438174e-003
9.438961e-003
9.439434e-003
9.439703e-003
9.439845e-003
9.439912e-003
9.439938e-003
9.439944e-003
9.439941e-003
9.439936e-003
9.439931e-003
9.439928e-003
9.439926e-003
9.439925e-003
9.439924e-003
9.439950e-003
9.439950e-003
9.439951e-003
9.439953e-003
9.439957e-003
9.439962e-003
9.439964e-003
9.439957e-003
9.439929e-003
9.439857e-003
9.439708e-003
9.439428e-003
9.438948e-003
9.438168e-003
9.436963e-003
9.435183e-003
9.432655e-003
9.429199e-003
9.424646e-003
9.418858e-003
9.411756e-003
9.403338e-003
9.393695e-003
9.383009e-003
9.371541e-003
9.359608e-003
9.347555e-003
9.335720e-003
9.324413e-003
9.313893e-003
9.304361e-003
9.295956e-003
9.288758e-003
9.282798e-003
9.278070e-003
9.274539e-003
9.272159e-003
9.270885e-003
9.270675e-003
9.271502e-003
9.273347e-003
9.276202e-003
9.280058e-003
9.284900e-003
9.290697e-003
9.297398e-003
9.304926e-003
9.313170e-003
9.321990e-003
9.331213e-003
9.340634e-003
9.350020e-003
9.359114e-003
9.367632e-003
9.375277e-003
9.381739e-003
9.386704e-003
9.389874e-003
9.390978e-003
9.389800e-003
9.386207e-003
9.380182e-003
9.371854e-003
9.361524e-003
9.349685e-003
9.337015e-003
9.324356e-003
9.312660e-003
9.302913e-003
9.296041e-003
9.292796e-003
9.293659e-003
9.298759e-003
9.307828e-003
9.320220e-003
9.334991e-003
9.351024e-003
9.367185e-003
9.382478e-003
9.396151e-003
9.407753e-003
9.417129e-003
9.424363e-003
9.429702e-003
9.433475e-003
9.436030e-003
9.437686e-003
9.438711e-003
9.439315e-003
9.439650e-003
9.439823e-003
9.439903e-003
9.439934e-003
9.439941e-003
9.439939e-003
9.439934e-003
9.439931e-003
9.439929e-003
9.439928e-003
9.439928e-003
9.439960e-003
9.439961e-003
9.439964e-003
9.439967e-003
9.439970e-003
9.439970e-003
9.439959e-003
9.439920e-003
9.439828e-003
9.439635e-003
9.439273e-003
9.438637e-003
9.437583e-003
9.435921e-003
9.433411e-003
9.429777e-003
9.424718e-003
9.417949e-003
9.409244e-003
9.398497e-003
9.385771e-003
9.371340e-003
9.355699e-003
9.339536e-003
9.323677e-003
9.308999e-003
9.296348e-003
9.286458e-003
9.279899e-003
9.277054e-003
9.278118e-003
9.283119e-003
9.291951e-003
9.304414e-003
9.320251e-003
9.339189e-003
9.360972e-003
9.385390e-003
9.412291e-003
9.441583e-003
9.473220e-003
9.507182e-003
9.543444e-003
9.581939e-003
9.622538e-003
9.665019e-003
9.709055e-003
9.754200e-003
9.799896e-003
9.845468e-003
9.890135e-003
9.933020e-003
9.973158e-003
1.000950e-002
1.004095e-002
1.006635e-002
1.008452e-002
1.009431e-002
1.009464e-002
1.008456e-002
1.006338e-002
1.003072e-002
9.986664e-003
9.931843e-003
9.867511e-003
9.795594e-003
9.718657e-003
9.639813e-003
9.562533e-003
9.490392e-003
9.426747e-003
9.374393e-003
9.335231e-003
9.310025e-003
9.298298e-003
9.298417e-003
9.307860e-003
9.323629e-003
9.342709e-003
9.362470e-003
9.380941e-003
9.396901e-003
9.409821e-003
9.419703e-003
9.426885e-003
9.431861e-003
9.435156e-003
9.437241e-003
9.438501e-003
9.439223e-003
9.439615e-003
9.439811e-003
9.439899e-003
9.439932e-003
9.439939e-003
9.439938e-003
9.439935e-003
9.439932e-003
9.439931e-003
9.439931e-003
9.439969e-003
9.439972e-003
9.439977e-003
9.439981e-003
9.439981e-003
9.439966e-003
9.439920e-003
9.439809e-003
9.439577e-003
9.439133e-003
9.438339e-003
9.436996e-003
9.434831e-003
9.431488e-003
9.426545e-003
9.419533e-003
9.410007e-003
9.397637e-003
9.382338e-003
9.364407e-003
9.344636e-003
9.324366e-003
9.305445e-003
9.290078e-003
9.280613e-003
9.279278e-003
9.287951e-003
9.307987e-003
9.340139e-003
9.384569e-003
9.440926e-003
9.508469e-003
9.586195e-003
9.672973e-003
9.767655e-003
9.869183e-003
9.976660e-003
1.008941e-002
1.020698e-002
1.032914e-002
1.045580e-002
1.058694e-002
1.072251e-002
1.086233e-002
1.100600e-002
1.115286e-002
1.130191e-002
1.145184e-002
1.160101e-002
1.174745e-002
1.188893e-002
1.202295e-002
1.214679e-002
1.225750e-002
1.235198e-002
1.242698e-002
1.247916e-002
1.250517e-002
1.250182e-002
1.246619e-002
1.239589e-002
1.228933e-002
1.214600e-002
1.196681e-002
1.175430e-002
1.151290e-002
1.124896e-002
1.097063e-002
1.068753e-002
1.041023e-002
1.014941e-002
9.914970e-003
9.714955e-003
9.554667e-003
9.436012e-003
9.357335e-003
9.313820e-003
9.298402e-003
9.302993e-003
9.319735e-003
9.341990e-003
9.364898e-003
9.385460e-003
9.402266e-003
9.415043e-003
9.424190e-003
9.430402e-003
9.434420e-003
9.436900e-003
9.438358e-003
9.439173e-003
9.439601e-003
9.439809e-003
9.439900e-003
9.439933e-003
9.439940e-003
9.439939e-003
9.439937e-003
9.439935e-003
9.439934e-003
9.439979e-003
9.439983e-003
9.439989e-003
9.439991e-003
9.439978e-003
9.439929e-003
9.439806e-003
9.439543e-003
9.439030e-003
9.438094e-003
9.436476e-003
9.433807e-003
9.429593e-003
9.423224e-003
9.414014e-003
9.401310e-003
9.384681e-003
9.364190e-003
9.340733e-003
9.316360e-003
9.294474e-003
9.279806e-003
9.278107e-003
9.295578e-003
9.338150e-003
9.410779e-003
9.516896e-003
9.658123e-003
9.834273e-003
1.004359e-002
1.028314e-002
1.054926e-002
1.083795e-002
1.114524e-002
1.146748e-002
1.180152e-002
1.214489e-002
1.249583e-002
1.285329e-002
1.321680e-002
1.358630e-002
1.396190e-002
1.434356e-002
1.473092e-002
1.512305e-002
1.551832e-002
1.591433e-002
1.630788e-002
1.669505e-002
1.707119e-002
1.743107e-002
1.776888e-002
1.807834e-002
1.835271e-002
1.858485e-002
1.876727e-002
1.889221e-002
1.895178e-002
1.893822e-002
1.884418e-002
1.866321e-002
1.839030e-002
1.802257e-002
1.756002e-002
1.700622e-002
1.636900e-002
1.566088e-002
1.489923e-002
1.410590e-002
1.330644e-002
1.252856e-002
1.180007e-002
1.114621e-002
1.058694e-002
1.013450e-002
9.791940e-003
9.553101e-003
9.404113e-003
9.326158e-003
9.298805e-003
9.303083e-003
9.323632e-003
9.349614e-003
9.374511e-003
9.395216e-003
9.410890e-003
9.421940e-003
9.429287e-003
9.433925e-003
9.436711e-003
9.438306e-003
9.439170e-003
9.439611e-003
9.439819e-003
9.439906e-003
9.439936e-003
9.439943e-003
9.439941e-003
9.439939e-003
9.439937e-003
9.439991e-003
9.439995e-003
9.439998e-003
9.439988e-003
9.439941e-003
9.439816e-003
9.439538e-003
9.438981e-003
9.437939e-003
9.436093e-003
9.432977e-003
9.427942e-003
9.420160e-003
9.408679e-003
9.392595e-003
9.371396e-003
9.345510e-003
9.317068e-003
9.290724e-003
9.274315e-003
9.279034e-003
9.318888e-003
9.409384e-003
9.565664e-003
9.800508e-003
1.012266e-002
1.053585e-002
1.103865e-002
1.162508e-002
1.228577e-002
1.300926e-002
1.378332e-002
1.459602e-002
1.543643e-002
1.629521e-002
1.716484e-002
1.803979e-002
1.891650e-002
1.979318e-002
2.066939e-002
2.154559e-002
2.242250e-002
2.330052e-002
2.417921e-002
2.505690e-002
2.593046e-002
2.679516e-002
2.764476e-002
2.847161e-002
2.926680e-002
3.002039e-002
3.072150e-002
3.135843e-002
3.191869e-002
3.238908e-002
3.275563e-002
3.300371e-002
3.311814e-002
3.308348e-002
3.288448e-002
3.250672e-002
3.193757e-002
3.116735e-002
3.019072e-002
2.900831e-002
2.762834e-002
2.606819e-002
2.435566e-002
2.252962e-002
2.063967e-002
1.874453e-002
1.690854e-002
1.519646e-002
1.366670e-002
1.236423e-002
1.131463e-002
1.052090e-002
9.964295e-003
9.609003e-003
9.409615e-003
9.319309e-003
9.296649e-003
9.309615e-003
9.336617e-003
9.365173e-003
9.389459e-003
9.407754e-003
9.420435e-003
9.428676e-003
9.433744e-003
9.436706e-003
9.438352e-003
9.439217e-003
9.439644e-003
9.439838e-003
9.439915e-003
9.439940e-003
9.439945e-003
9.439943e-003
9.439941e-003
9.440006e-003
9.440006e-003
9.439997e-003
9.439955e-003
9.439837e-003
9.439562e-003
9.438991e-003
9.437894e-003
9.435903e-003
9.432455e-003
9.426750e-003
9.417724e-003
9.404124e-003
9.384751e-003
9.359026e-003
9.328006e-003
9.295916e-003
9.272055e-003
9.272596e-003
9.321553e-003
9.450133e-003
9.694090e-003
1.008932e-002
1.066667e-002
1.144722e-002
1.243923e-002
1.363736e-002
1.502412e-002
1.657289e-002
1.825178e-002
2.002729e-002
2.186734e-002
2.374335e-002
2.563137e-002
2.751253e-002
2.937309e-002
3.120411e-002
3.300097e-002
3.476257e-002
3.649035e-002
3.818720e-002
3.985619e-002
4.149959e-002
4.311796e-002
4.470954e-002
4.627006e-002
4.779264e-002
4.926808e-002
5.068513e-002
5.203089e-002
5.329113e-002
5.445051e-002
5.549270e-002
5.640040e-002
5.715518e-002
5.773740e-002
5.812598e-002
5.829839e-002
5.823064e-002
5.789758e-002
5.727338e-002
5.633251e-002
5.505102e-002
5.340846e-002
5.139034e-002
4.899119e-002
4.621823e-002
4.309537e-002
3.966723e-002
3.600242e-002
3.219494e-002
2.836220e-002
2.463829e-002
2.116192e-002
1.805998e-002
1.542979e-002
1.332447e-002
1.174601e-002
1.064855e-002
9.951055e-003
9.555710e-003
9.366177e-003
9.301159e-003
9.300871e-003
9.326979e-003
9.358393e-003
9.385673e-003
9.406046e-003
9.419887e-003
9.428658e-003
9.433905e-003
9.436883e-003
9.438488e-003
9.439304e-003
9.439693e-003
9.439862e-003
9.439926e-003
9.439945e-003
9.439947e-003
9.439946e-003
9.440021e-003
9.440010e-003
9.439972e-003
9.439864e-003
9.439606e-003
9.439055e-003
9.437964e-003
9.435929e-003
9.432314e-003
9.426181e-003
9.416238e-003
9.400911e-003
9.378661e-003
9.348813e-003
9.313227e-003
9.279080e-003
9.262734e-003
9.293984e-003
9.419188e-003
9.701322e-003
1.021540e-002
1.103911e-002
1.224046e-002
1.386554e-002
1.592991e-002
1.841584e-002
2.127565e-002
2.443981e-002
2.782717e-002
3.135492e-002
3.494649e-002
3.853658e-002
4.207343e-002
4.551892e-002
4.884751e-002
5.204449e-002
5.510409e-002
5.802756e-002
6.082117e-002
6.349424e-002
6.605716e-002
6.851973e-002
7.088969e-002
7.317182e-002
7.536746e-002
7.747449e-002
7.948763e-002
8.139902e-002
8.319880e-002
8.487571e-002
8.641750e-002
8.781118e-002
8.904308e-002
9.009862e-002
9.096202e-002
9.161581e-002
9.204029e-002
9.221294e-002
9.210779e-002
9.169496e-002
9.094022e-002
8.980483e-002
8.824587e-002
8.621705e-002
8.367066e-002
8.056076e-002
7.684828e-002
7.250848e-002
6.754075e-002
6.198051e-002
5.591146e-002
4.947505e-002
4.287279e-002
3.635654e-002
3.020381e-002
2.467979e-002
1.999380e-002
1.626291e-002
1.349521e-002
1.159882e-002
1.041300e-002
9.749550e-003
9.430593e-003
9.312963e-003
9.296709e-003
9.321169e-003
9.354810e-003
9.384312e-003
9.405998e-003
9.420376e-003
9.429236e-003
9.434382e-003
9.437214e-003
9.438692e-003
9.439418e-003
9.439750e-003
9.439888e-003
9.439937e-003
9.439950e-003
9.439952e-003
9.440028e-003
9.439995e-003
9.439899e-003
9.439667e-003
9.439160e-003
9.438132e-003
9.436161e-003
9.432567e-003
9.426310e-003
9.415904e-003
9.399461e-003
9.375053e-003
9.341798e-003
9.302287e-003
9.267061e-003
9.261524e-003
9.334589e-003
9.566543e-003
1.007199e-002
1.099342e-002
1.248337e-002
1.467737e-002
1.766479e-002
2.146662e-002
2.602755e-002
3.122451e-002
3.688800e-002
4.282899e-002
4.886416e-002
5.483440e-002
6.061475e-002
6.611686e-002
7.128603e-002
7.609552e-002
8.054006e-002
8.462966e-002
8.838441e-002
9.183023e-002
9.499554e-002
9.790869e-002
1.005959e-001
1.030802e-001
1.053803e-001
1.075106e-001
1.094818e-001
1.113010e-001
1.129728e-001
1.144998e-001
1.158837e-001
1.171254e-001
1.182254e-001
1.191839e-001
1.200006e-001
1.206745e-001
1.212031e-001
1.215823e-001
1.218054e-001
1.218622e-001
1.217380e-001
1.214122e-001
1.208568e-001
1.200343e-001
1.188961e-001
1.173793e-001
1.154057e-001
1.128798e-001
1.096903e-001
1.057145e-001
1.008289e-001
9.492834e-002
8.795286e-002
7.992284e-002
7.097433e-002
6.138412e-002
5.156840e-002
4.204152e-002
3.333420e-002
2.588977e-002
1.997382e-002
1.563184e-002
1.270997e-002
1.092507e-002
9.951687e-003
9.493947e-003
9.325124e-003
9.295434e-003
9.319226e-003
9.354730e-003
9.385537e-003
9.407615e-003
9.421828e-003
9.430322e-003
9.435102e-003
9.437649e-003
9.438933e-003
9.439542e-003
9.439808e-003
9.439913e-003
9.439949e-003
9.439958e-003
9.440011e-003
9.439937e-003
9.439738e-003
9.439293e-003
9.438369e-003
9.436556e-003
9.433165e-003
9.427103e-003
9.416754e-003
9.399958e-003
9.374370e-003
9.338704e-003
9.295851e-003
9.259239e-003
9.263692e-003
9.380703e-003
9.734847e-003
1.051394e-002
1.196288e-002
1.435325e-002
1.792945e-002
2.284425e-002
2.910613e-002
3.655983e-002
4.490894e-002
5.377188e-002
6.275066e-002
7.149059e-002
7.971791e-002
8.725271e-002
9.400245e-002
9.994488e-002
1.051078e-001
1.095505e-001
1.133486e-001
1.165825e-001
1.193305e-001
1.216638e-001
1.236446e-001
1.253259e-001
1.267519e-001
1.279592e-001
1.289784e-001
1.298349e-001
1.305506e-001
1.311444e-001
1.316330e-001
1.320313e-001
1.323523e-001
1.326075e-001
1.328069e-001
1.329588e-001
1.330700e-001
1.331460e-001
1.331907e-001
1.332064e-001
1.331940e-001
1.331524e-001
1.330781e-001
1.329648e-001
1.328022e-001
1.325745e-001
1.322585e-001
1.318196e-001
1.312073e-001
1.303473e-001
1.291326e-001
1.274120e-001
1.249809e-001
1.215796e-001
1.169064e-001
1.106573e-001
1.025976e-001
9.266434e-002
8.107073e-002
6.836567e-002
5.539369e-002
4.313720e-002
3.248161e-002
2.399816e-002
1.783944e-002
1.378246e-002
1.137569e-002
1.010821e-002
9.534467e-003
9.330752e-003
9.295614e-003
9.321087e-003
9.358151e-003
9.389195e-003
9.410673e-003
9.424035e-003
9.431758e-003
9.435963e-003
9.438129e-003
9.439182e-003
9.439662e-003
9.439863e-003
9.439938e-003
9.439961e-003
9.439945e-003
9.439802e-003
9.439434e-003
9.438642e-003
9.437053e-003
9.434010e-003
9.428431e-003
9.418646e-003
9.402314e-003
9.376690e-003
9.339870e-003
9.294319e-003
9.254816e-003
9.263457e-003
9.413208e-003
9.877095e-003
1.093226e-002
1.295987e-002
1.640039e-002
2.165622e-002
2.896103e-002
3.826395e-002
4.918598e-002
6.107861e-002
7.316585e-002
8.471088e-002
9.514608e-002
1.041335e-001
1.115581e-001
1.174775e-001
1.220565e-001
1.255087e-001
1.280555e-001
1.299008e-001
1.312186e-001
1.321481e-001
1.327962e-001
1.332414e-001
1.335409e-001
1.337359e-001
1.338571e-001
1.339275e-001
1.339651e-001
1.339838e-001
1.339940e-001
1.340029e-001
1.340151e-001
1.340324e-001
1.340550e-001
1.340818e-001
1.341115e-001
1.341427e-001
1.341748e-001
1.342080e-001
1.342432e-001
1.342819e-001
1.343253e-001
1.343745e-001
1.344290e-001
1.344861e-001
1.345405e-001
1.345826e-001
1.345990e-001
1.345720e-001
1.344805e-001
1.343008e-001
1.340062e-001
1.335622e-001
1.329114e-001
1.319456e-001
1.304602e-001
1.280999e-001
1.243253e-001
1.184574e-001
1.098635e-001
9.826763e-002
8.404892e-002
6.832473e-002
5.270243e-002
3.878125e-002
2.765823e-002
1.968911e-002
1.457462e-002
1.164725e-002
1.017144e-002
9.537097e-003
9.326759e-003
9.297136e-003
9.326761e-003
9.364768e-003
9.394843e-003
9.414768e-003
9.426701e-003
9.433358e-003
9.436858e-003
9.438598e-003
9.439413e-003
9.439768e-003
9.439910e-003
9.439957e-003
9.439794e-003
9.439543e-003
9.438910e-003
9.437584e-003
9.434982e-003
9.430095e-003
9.421296e-003
9.406183e-003
9.381702e-003
9.345209e-003
9.297958e-003
9.253829e-003
9.257550e-003
9.416495e-003
9.945570e-003
1.121286e-002
1.375645e-002
1.823055e-002
2.524952e-002
3.514707e-002
4.774075e-002
6.223772e-002
7.737457e-002
9.175625e-002
1.042374e-001
1.141747e-001
1.214703e-001
1.264405e-001
1.296095e-001
1.315236e-001
1.326381e-001
1.332810e-001
1.336635e-001
1.339071e-001
1.340713e-001
1.341779e-001
1.342295e-001
1.342221e-001
1.341527e-001
1.340210e-001
1.338297e-001
1.335831e-001
1.332857e-001
1.329418e-001
1.325556e-001
1.321309e-001
1.316725e-001
1.311862e-001
1.306799e-001
1.301634e-001
1.296488e-001
1.291505e-001
1.286846e-001
1.282689e-001
1.279220e-001
1.276637e-001
1.275140e-001
1.274928e-001
1.276190e-001
1.279095e-001
1.283770e-001
1.290282e-001
1.298595e-001
1.308531e-001
1.319710e-001
1.331486e-001
1.342883e-001
1.352562e-001
1.358893e-001
1.360222e-001
1.355393e-001
1.344242e-001
1.327192e-001
1.303092e-001
1.266046e-001
1.204436e-001
1.105453e-001
9.641344e-002
7.901662e-002
6.060219e-002
4.373374e-002
3.024864e-002
2.077042e-002
1.488629e-002
1.166246e-002
1.012113e-002
9.500991e-003
9.315612e-003
9.301268e-003
9.336194e-003
9.373955e-003
9.401815e-003
9.419395e-003
9.429506e-003
9.434941e-003
9.437696e-003
9.439016e-003
9.439609e-003
9.439854e-003
9.439939e-003
9.439512e-003
9.439099e-003
9.438071e-003
9.435957e-003
9.431879e-003
9.424346e-003
9.411037e-003
9.388756e-003
9.354169e-003
9.306792e-003
9.257409e-003
9.247499e-003
9.386910e-003
9.913904e-003
1.126797e-002
1.413817e-002
1.941766e-002
2.798893e-002
4.032838e-002
5.606633e-002
7.378454e-002
9.130634e-002
1.064454e-001
1.178208e-001
1.252537e-001
1.295425e-001
1.318508e-001
1.331509e-001
1.339871e-001
1.345301e-001
1.347604e-001
1.346278e-001
1.341242e-001
1.332859e-001
1.321719e-001
1.308448e-001
1.293608e-001
1.277664e-001
1.260984e-001
1.243842e-001
1.226440e-001
1.208918e-001
1.191379e-001
1.173903e-001
1.156568e-001
1.139461e-001
1.122686e-001
1.106363e-001
1.090636e-001
1.075664e-001
1.061621e-001
1.048692e-001
1.037073e-001
1.026972e-001
1.018608e-001
1.012219e-001
1.008065e-001
1.006431e-001
1.007636e-001
1.012032e-001
1.020004e-001
1.031965e-001
1.048337e-001
1.069524e-001
1.095853e-001
1.127482e-001
1.164249e-001
1.205424e-001
1.249381e-001
1.293191e-001
1.332343e-001
1.360966e-001
1.373234e-001
1.366288e-001
1.342888e-001
1.308372e-001
1.259667e-001
1.178909e-001
1.046631e-001
8.639291e-002
6.578126e-002
4.650633e-002
3.124372e-002
2.082876e-002
1.463518e-002
1.141729e-002
9.973868e-003
9.439904e-003
9.303883e-003
9.309691e-003
9.348953e-003
9.384791e-003
9.409332e-003
9.424048e-003
9.432166e-003
9.436364e-003
9.438414e-003
9.439357e-003
9.439758e-003
9.439901e-003
9.439046e-003
9.438399e-003
9.436807e-003
9.433577e-003
9.427435e-003
9.416276e-003
9.396978e-003
9.365754e-003
9.320327e-003
9.267016e-003
9.238934e-003
9.335128e-003
9.790723e-003
1.107630e-002
1.399046e-002
1.965322e-002
2.926342e-002
4.353431e-002
6.195153e-002
8.234343e-002
1.013707e-001
1.160192e-001
1.251905e-001
1.300232e-001
1.325843e-001
1.342517e-001
1.352405e-001
1.352168e-001
1.339695e-001
1.315948e-001
1.283755e-001
1.246307e-001
1.206336e-001
1.165840e-001
1.126126e-001
1.087957e-001
1.051711e-001
1.017517e-001
9.853445e-002
9.550771e-002
9.265546e-002
8.996099e-002
8.740921e-002
8.498819e-002
8.268989e-002
8.051035e-002
7.844934e-002
7.650979e-002
7.469706e-002
7.301831e-002
7.148199e-002
7.009761e-002
6.887565e-002
6.782789e-002
6.696779e-002
6.631121e-002
6.587721e-002
6.568905e-002
6.577528e-002
6.617107e-002
6.691959e-002
6.807362e-002
6.969724e-002
7.186741e-002
7.467509e-002
7.822486e-002
8.263098e-002
8.800607e-002
9.443561e-002
1.019283e-001
1.103314e-001
1.192060e-001
1.276906e-001
1.344638e-001
1.380471e-001
1.376691e-001
1.341672e-001
1.290873e-001
1.217756e-001
1.091907e-001
9.014731e-002
6.768235e-002
4.665149e-002
3.044034e-002
1.985163e-002
1.388919e-002
1.098259e-002
9.775221e-003
9.375241e-003
9.298609e-003
9.323218e-003
9.364029e-003
9.396175e-003
9.416643e-003
9.428308e-003
9.434476e-003
9.437543e-003
9.438980e-003
9.439605e-003
9.439832e-003
9.438334e-003
9.437366e-003
9.434999e-003
9.430250e-003
9.421345e-003
9.405445e-003
9.378666e-003
9.337353e-003
9.283235e-003
9.238342e-003
9.280695e-003
9.615925e-003
1.069421e-002
1.334947e-002
1.886383e-002
2.876397e-002
4.414259e-002
6.455848e-002
8.718114e-002
1.073743e-001
1.212782e-001
1.286170e-001
1.322963e-001
1.347390e-001
1.358407e-001
1.345115e-001
1.304709e-001
1.243631e-001
1.171339e-001
1.095891e-001
1.022611e-001
9.543974e-002
8.924582e-002
8.369902e-002
7.876494e-002
7.438457e-002
7.049093e-002
6.701773e-002
6.390357e-002
6.109388e-002
5.854172e-002
5.620808e-002
5.406163e-002
5.207826e-002
5.024031e-002
4.853555e-002
4.695617e-002
4.549770e-002
4.415811e-002
4.293713e-002
4.183566e-002
4.085564e-002
3.999994e-002
3.927259e-002
3.867912e-002
3.822710e-002
3.792681e-002
3.779205e-002
3.784119e-002
3.809847e-002
3.859565e-002
3.937421e-002
4.048820e-002
4.200803e-002
4.402548e-002
4.665999e-002
5.006598e-002
5.443978e-002
6.002212e-002
6.708758e-002
7.590419e-002
8.663526e-002
9.914724e-002
1.127046e-001
1.256313e-001
1.352842e-001
1.390550e-001
1.366662e-001
1.309980e-001
1.234844e-001
1.106785e-001
9.032508e-002
6.614269e-002
4.415099e-002
2.800739e-002
1.807221e-002
1.283912e-002
1.047349e-002
9.579225e-003
9.326202e-003
9.303845e-003
9.341099e-003
9.379949e-003
9.407038e-003
9.423157e-003
9.431900e-003
9.436331e-003
9.438442e-003
9.439377e-003
9.439722e-003
9.437316e-003
9.435919e-003
9.432529e-003
9.425797e-003
9.413344e-003
9.391553e-003
9.356080e-003
9.305010e-003
9.249505e-003
9.242309e-003
9.441701e-003
1.023059e-002
1.238893e-002
1.724391e-002
2.658396e-002
4.200404e-002
6.351897e-002
8.807661e-002
1.098040e-001
1.236839e-001
1.302073e-001
1.338053e-001
1.359725e-001
1.345333e-001
1.282719e-001
1.183590e-001
1.068320e-001
9.533531e-002
8.480437e-002
7.561144e-002
6.779449e-002
6.123133e-002
5.574346e-002
5.114872e-002
4.728377e-002
4.401073e-002
4.121662e-002
3.881008e-002
3.671765e-002
3.488048e-002
3.325179e-002
3.179476e-002
3.048092e-002
2.928870e-002
2.820212e-002
2.720967e-002
2.630323e-002
2.547718e-002
2.472768e-002
2.405217e-002
2.344894e-002
2.291703e-002
2.245616e-002
2.206679e-002
2.175040e-002
2.150968e-002
2.134900e-002
2.127487e-002
2.129658e-002
2.142707e-002
2.168414e-002
2.209206e-002
2.268393e-002
2.350504e-002
2.461791e-002
2.610946e-002
2.810147e-002
3.076512e-002
3.433959e-002
3.915294e-002
4.563673e-002
5.431352e-002
6.571324e-002
8.014401e-002
9.723353e-002
1.152543e-001
1.306312e-001
1.388262e-001
1.379313e-001
1.317256e-001
1.235452e-001
1.094412e-001
8.694433e-002
6.130632e-002
3.941399e-002
2.444258e-002